 vasp.5.4.4.18Apr17-6-g9f103f2a35 (build Dec 20 2018 12:05:58) complex          
  
 executed on             LinuxIFC date 2019.06.20  17:44:23
 running on   32 total cores
 distrk:  each k-point on    8 cores,    4 groups
 distr:  one band on NCORES_PER_BAND=   4 cores,    2 groups


--------------------------------------------------------------------------------------------------------


 INCAR:
 POTCAR:    PAW_PBE Al 04Jan2001                  
 POTCAR:    PAW_PBE Mn 06Sep2000                  

 ----------------------------------------------------------------------------- 
|                                                                             |
|           W    W    AA    RRRRR   N    N  II  N    N   GGGG   !!!           |
|           W    W   A  A   R    R  NN   N  II  NN   N  G    G  !!!           |
|           W    W  A    A  R    R  N N  N  II  N N  N  G       !!!           |
|           W WW W  AAAAAA  RRRRR   N  N N  II  N  N N  G  GGG   !            |
|           WW  WW  A    A  R   R   N   NN  II  N   NN  G    G                |
|           W    W  A    A  R    R  N    N  II  N    N   GGGG   !!!           |
|                                                                             |
|      You have enabled k-point parallelism (KPAR>1).                         |
|      This developmental code was originally  written by Paul Kent at ORNL,  |
|      and carefully double checked in Vienna.                                |
|      GW as well as linear response parallelism added by Martijn Marsman     |
|      and Georg Kresse.                                                      |
|      Carefully verify results versus KPAR=1.                                |
|      Report problems to Paul Kent and Vienna.                               |
|                                                                             |
 ----------------------------------------------------------------------------- 

 POTCAR:    PAW_PBE Al 04Jan2001                  
   VRHFIN =Al: s2p1                                                             
   LEXCH  = PE                                                                  
   EATOM  =    53.5387 eV,    3.9350 Ry                                         
                                                                                
   TITEL  = PAW_PBE Al 04Jan2001                                                
   LULTRA =        F    use ultrasoft PP ?                                      
   IUNSCR =        1    unscreen: 0-lin 1-nonlin 2-no                           
   RPACOR =    1.500    partial core radius                                     
   POMASS =   26.981; ZVAL   =    3.000    mass and valenz                      
   RCORE  =    1.900    outmost cutoff radius                                   
   RWIGS  =    2.650; RWIGS  =    1.402    wigner-seitz radius (au A)           
   ENMAX  =  240.300; ENMIN  =  180.225 eV                                      
   ICORE  =        2    local potential                                         
   LCOR   =        T    correct aug charges                                     
   LPAW   =        T    paw PP                                                  
   EAUG   =  291.052                                                            
   DEXC   =    0.000                                                            
   RMAX   =    1.939    core radius for proj-oper                               
   RAUG   =    1.300    factor for augmentation sphere                          
   RDEP   =    1.966    radius for radial grids                                 
   RDEPT  =    1.856    core radius for aug-charge                              
                                                                                
   Atomic configuration                                                         
    6 entries                                                                   
     n  l   j            E        occ.                                          
     1  0  0.50     -1511.1048   2.0000                                         
     2  0  0.50      -108.1629   2.0000                                         
     2  1  1.50       -69.6402   6.0000                                         
     3  0  0.50        -7.7528   2.0000                                         
     3  1  1.50        -2.7121   1.0000                                         
     3  2  2.50        -2.7212   0.0000                                         
   Description                                                                  
     l       E           TYP  RCUT    TYP  RCUT                                 
     0     -7.7528455     23  1.900                                             
     0     -3.3096929     23  1.900                                             
     1     -2.7120682     23  1.900                                             
     1     13.6058260     23  1.900                                             
     2     -2.7211652      7  1.900                                             
  local pseudopotential read in
  partial core-charges read in
  partial kinetic energy density read in
  atomic valenz-charges read in
  non local Contribution for L=           0  read in
    real space projection operators read in
  non local Contribution for L=           0  read in
    real space projection operators read in
  non local Contribution for L=           1  read in
    real space projection operators read in
  non local Contribution for L=           1  read in
    real space projection operators read in
    PAW grid and wavefunctions read in
 
   number of l-projection  operators is LMAX  =           4
   number of lm-projection operators is LMMAX =           8
 
 POTCAR:    PAW_PBE Mn 06Sep2000                  
   VRHFIN =Mn: d6 s1                                                            
   LEXCH  = PE                                                                  
   EATOM  =   416.7541 eV,   30.6306 Ry                                         
                                                                                
   TITEL  = PAW_PBE Mn 06Sep2000                                                
   LULTRA =        F    use ultrasoft PP ?                                      
   IUNSCR =        1    unscreen: 0-lin 1-nonlin 2-no                           
   RPACOR =    2.000    partial core radius                                     
   POMASS =   54.938; ZVAL   =    7.000    mass and valenz                      
   RCORE  =    2.300    outmost cutoff radius                                   
   RWIGS  =    2.500; RWIGS  =    1.323    wigner-seitz radius (au A)           
   ENMAX  =  269.864; ENMIN  =  202.398 eV                                      
   RCLOC  =    1.725    cutoff for local pot                                    
   LCOR   =        T    correct aug charges                                     
   LPAW   =        T    paw PP                                                  
   EAUG   =  500.711                                                            
   DEXC   =    0.000                                                            
   RMAX   =    2.343    core radius for proj-oper                               
   RAUG   =    1.300    factor for augmentation sphere                          
   RDEP   =    2.338    radius for radial grids                                 
   RDEPT  =    1.911    core radius for aug-charge                              
                                                                                
   Atomic configuration                                                         
    9 entries                                                                   
     n  l   j            E        occ.                                          
     1  0  0.50     -6424.8288   2.0000                                         
     2  0  0.50      -739.1154   2.0000                                         
     2  1  1.50      -625.3949   6.0000                                         
     3  0  0.50       -81.6100   2.0000                                         
     3  1  1.50       -50.4667   6.0000                                         
     3  2  2.50        -3.3745   6.0000                                         
     4  0  0.50        -4.1331   1.0000                                         
     4  1  0.50        -4.0817   0.0000                                         
     4  3  2.50        -1.3606   0.0000                                         
   Description                                                                  
     l       E           TYP  RCUT    TYP  RCUT                                 
     2     -3.3744664     23  2.300                                             
     2     -4.7350490     23  2.300                                             
     0     -4.1331408     23  2.300                                             
     0      7.6656614     23  2.300                                             
     1     -2.7211652     23  2.300                                             
     1     20.4087390     23  2.300                                             
  local pseudopotential read in
  partial core-charges read in
  partial kinetic energy density read in
  atomic valenz-charges read in
  non local Contribution for L=           2  read in
    real space projection operators read in
  non local Contribution for L=           2  read in
    real space projection operators read in
  non local Contribution for L=           0  read in
    real space projection operators read in
  non local Contribution for L=           0  read in
    real space projection operators read in
  non local Contribution for L=           1  read in
    real space projection operators read in
  non local Contribution for L=           1  read in
    real space projection operators read in
    PAW grid and wavefunctions read in
 
   number of l-projection  operators is LMAX  =           6
   number of lm-projection operators is LMMAX =          18
 

 ----------------------------------------------------------------------------- 
|                                                                             |
|  ADVICE TO THIS USER RUNNING 'VASP/VAMP'   (HEAR YOUR MASTER'S VOICE ...):  |
|                                                                             |
|      You have a (more or less) 'large supercell' and for larger cells       |
|      it might be more efficient to use real space projection opertators     |
|      So try LREAL= Auto  in the INCAR   file.                               |
|      Mind:          For very  accurate calculation you might also keep the  |
|      reciprocal projection scheme          (i.e. LREAL=.FALSE.)             |
|                                                                             |
 ----------------------------------------------------------------------------- 

  PAW_PBE Al 04Jan2001                  :
 energy of atom  1       EATOM=  -53.5387
 kinetic energy error for atom=    0.0005 (will be added to EATOM!!)
  PAW_PBE Mn 06Sep2000                  :
 energy of atom  2       EATOM= -416.7541
 kinetic energy error for atom=    0.0080 (will be added to EATOM!!)
 
 
 POSCAR: NewRef: 27, @ ['Mn', array([1.37502469, 
  positions in cartesian coordinates
  velocities in cartesian coordinates
  No initial velocities read in
 exchange correlation table for  LEXCH =        8
   RHO(1)=    0.500       N(1)  =     2000
   RHO(2)=  100.500       N(2)  =     4000
 


--------------------------------------------------------------------------------------------------------


 ion  position               nearest neighbor table
   1  0.000  0.000  0.000-  28 2.61  30 2.61  34 2.61  36 2.61  46 2.61  48 2.61  52 2.61  54 2.61
                             4 2.75  10 2.75   7 2.75  19 2.75
   2  0.000  0.000  0.333-  28 2.61  34 2.61  46 2.61  52 2.61  29 2.61  47 2.61  35 2.61  53 2.61
                             5 2.75  11 2.75   8 2.75  20 2.75
   3  0.000  0.000  0.667-  29 2.61  35 2.61  47 2.61  53 2.61  30 2.61  48 2.61  36 2.61  54 2.61
                             6 2.75  12 2.75   9 2.75  21 2.75
   4  0.000  0.333  0.000-  28 2.61  30 2.61  46 2.61  48 2.61  31 2.61  33 2.61  49 2.61  51 2.61
                            13 2.75   1 2.75   7 2.75  22 2.75
   5  0.000  0.333  0.333-  28 2.61  46 2.61  31 2.61  49 2.61  47 2.61  29 2.61  32 2.61  50 2.61
                            14 2.75   2 2.75   8 2.75  23 2.75
   6  0.000  0.333  0.667-  29 2.61  47 2.61  32 2.61  50 2.61  48 2.61  30 2.61  33 2.61  51 2.61
                            15 2.75   3 2.75   9 2.75  24 2.75
   7  0.000  0.667  0.000-  31 2.61  33 2.61  49 2.61  51 2.61  34 2.61  36 2.61  52 2.61  54 2.61
                             4 2.75  16 2.75   1 2.75  25 2.75
   8  0.000  0.667  0.333-  31 2.61  49 2.61  34 2.61  52 2.61  50 2.61  32 2.61  35 2.61  53 2.61
                             5 2.75  17 2.75   2 2.75  26 2.75
   9  0.000  0.667  0.667-  32 2.61  50 2.61  35 2.61  53 2.61  51 2.61  33 2.61  36 2.61  54 2.61
                             6 2.75  18 2.75   3 2.75  27 2.75
  10  0.333  0.000  0.000-  28 2.61  30 2.61  34 2.61  36 2.61  37 2.61  39 2.61  43 2.61  45 2.61
                            19 2.75   1 2.75  13 2.75  16 2.75
  11  0.333  0.000  0.333-  28 2.61  34 2.61  37 2.61  43 2.61  29 2.61  35 2.61  38 2.61  44 2.61
                            20 2.75   2 2.75  14 2.75  17 2.75
  12  0.333  0.000  0.667-  29 2.61  35 2.61  38 2.61  44 2.61  30 2.61  36 2.61  39 2.61  45 2.61
                            21 2.75   3 2.75  15 2.75  18 2.75
  13  0.333  0.333  0.000-  28 2.61  30 2.61  31 2.61  33 2.61  37 2.61  39 2.61  40 2.61  42 2.61
                             4 2.75  10 2.75  16 2.75  22 2.75
  14  0.333  0.333  0.333-  28 2.61  31 2.61  37 2.61  29 2.61  40 2.61  38 2.61  32 2.61  41 2.61
                             5 2.75  11 2.75  17 2.75  23 2.75
  15  0.333  0.333  0.667-  29 2.61  32 2.61  38 2.61  30 2.61  41 2.61  39 2.61  33 2.61  42 2.61
                             6 2.75  12 2.75  18 2.75  24 2.75
  16  0.333  0.667  0.000-  31 2.61  33 2.61  34 2.61  36 2.61  40 2.61  42 2.61  43 2.61  45 2.61
                            25 2.75   7 2.75  13 2.75  10 2.75
  17  0.333  0.667  0.333-  31 2.61  34 2.61  40 2.61  32 2.61  43 2.61  41 2.61  35 2.61  44 2.61
                            26 2.75   8 2.75  14 2.75  11 2.75
  18  0.333  0.667  0.667-  32 2.61  35 2.61  41 2.61  33 2.61  44 2.61  42 2.61  36 2.61  45 2.61
                            27 2.75   9 2.75  15 2.75  12 2.75
  19  0.667  0.000  0.000-  37 2.61  39 2.61  43 2.61  45 2.61  46 2.61  48 2.61  52 2.61  54 2.61
                            10 2.75  22 2.75   1 2.75  25 2.75
  20  0.667  0.000  0.333-  37 2.61  43 2.61  46 2.61  52 2.61  38 2.61  44 2.61  47 2.61  53 2.61
                            11 2.75  23 2.75   2 2.75  26 2.75
  21  0.667  0.000  0.667-  38 2.61  44 2.61  47 2.61  53 2.61  39 2.61  45 2.61  48 2.61  54 2.61
                            12 2.75  24 2.75   3 2.75  27 2.75
  22  0.667  0.333  0.000-  37 2.61  39 2.61  40 2.61  42 2.61  46 2.61  48 2.61  49 2.61  51 2.61
                            25 2.75  13 2.75  19 2.75   4 2.75
  23  0.667  0.333  0.333-  37 2.61  40 2.61  46 2.61  38 2.61  49 2.61  47 2.61  41 2.61  50 2.61
                            26 2.75  14 2.75  20 2.75   5 2.75
  24  0.667  0.333  0.667-  38 2.61  41 2.61  47 2.61  39 2.61  50 2.61  48 2.61  42 2.61  51 2.61
                            27 2.75  15 2.75  21 2.75   6 2.75
  25  0.667  0.667  0.000-  40 2.61  42 2.61  43 2.61  45 2.61  49 2.61  51 2.61  52 2.61  54 2.61
                            16 2.75  22 2.75  19 2.75   7 2.75
  26  0.667  0.667  0.333-  40 2.61  43 2.61  49 2.61  41 2.61  52 2.61  50 2.61  44 2.61  53 2.61
                            17 2.75  23 2.75  20 2.75   8 2.75
  27  0.667  0.667  0.667-  41 2.61  44 2.61  50 2.61  42 2.61  53 2.61  51 2.61  45 2.61  54 2.61
                            18 2.75  24 2.75  21 2.75   9 2.75
  28  0.167  0.167  0.167-  14 2.61  11 2.61   5 2.61  13 2.61   2 2.61  10 2.61   4 2.61   1 2.61
                            31 2.75  37 2.75  34 2.75  46 2.75
  29  0.167  0.167  0.500-  15 2.61  12 2.61   6 2.61  14 2.61   3 2.61  11 2.61   5 2.61   2 2.61
                            32 2.75  38 2.75  35 2.75  47 2.75
  30  0.167  0.167  0.833-  13 2.61  15 2.61  10 2.61  12 2.61   4 2.61   6 2.61   1 2.61   3 2.61
                            33 2.75  39 2.75  36 2.75  48 2.75
  31  0.167  0.500  0.167-  17 2.61  14 2.61   8 2.61  16 2.61   5 2.61  13 2.61   7 2.61   4 2.61
                            28 2.75  34 2.75  40 2.75  49 2.75
  32  0.167  0.500  0.500-  18 2.61  15 2.61   9 2.61  17 2.61   6 2.61  14 2.61   8 2.61   5 2.61
                            29 2.75  35 2.75  41 2.75  50 2.75
  33  0.167  0.500  0.833-  16 2.61  18 2.61  13 2.61  15 2.61   7 2.61   9 2.61   4 2.61   6 2.61
                            30 2.75  36 2.75  42 2.75  51 2.75
  34  0.167  0.833  0.167-  11 2.61  17 2.61   2 2.61   8 2.61  16 2.61  10 2.61   7 2.61   1 2.61
                            31 2.75  43 2.75  28 2.75  52 2.75
  35  0.167  0.833  0.500-  12 2.61  18 2.61   3 2.61   9 2.61  17 2.61  11 2.61   8 2.61   2 2.61
                            32 2.75  44 2.75  29 2.75  53 2.75
  36  0.167  0.833  0.833-  10 2.61  12 2.61  16 2.61  18 2.61   1 2.61   3 2.61   7 2.61   9 2.61
                            33 2.75  45 2.75  30 2.75  54 2.75
  37  0.500  0.167  0.167-  23 2.61  20 2.61  14 2.61  22 2.61  11 2.61  19 2.61  13 2.61  10 2.61
                            28 2.75  40 2.75  46 2.75  43 2.75
  38  0.500  0.167  0.500-  24 2.61  21 2.61  15 2.61  23 2.61  12 2.61  20 2.61  14 2.61  11 2.61
                            29 2.75  41 2.75  47 2.75  44 2.75
  39  0.500  0.167  0.833-  22 2.61  24 2.61  19 2.61  21 2.61  13 2.61  15 2.61  10 2.61  12 2.61
                            30 2.75  42 2.75  48 2.75  45 2.75
  40  0.500  0.500  0.167-  26 2.61  23 2.61  17 2.61  25 2.61  14 2.61  22 2.61  16 2.61  13 2.61
                            31 2.75  37 2.75  43 2.75  49 2.75
  41  0.500  0.500  0.500-  27 2.61  24 2.61  18 2.61  26 2.61  15 2.61  23 2.61  17 2.61  14 2.61
                            32 2.75  38 2.75  44 2.75  50 2.75
  42  0.500  0.500  0.833-  25 2.61  27 2.61  22 2.61  24 2.61  16 2.61  18 2.61  13 2.61  15 2.61
                            33 2.75  39 2.75  45 2.75  51 2.75
  43  0.500  0.833  0.167-  20 2.61  26 2.61  11 2.61  17 2.61  25 2.61  19 2.61  16 2.61  10 2.61
                            34 2.75  40 2.75  52 2.75  37 2.75
  44  0.500  0.833  0.500-  21 2.61  27 2.61  12 2.61  18 2.61  26 2.61  20 2.61  17 2.61  11 2.61
                            35 2.75  41 2.75  53 2.75  38 2.75
  45  0.500  0.833  0.833-  19 2.61  21 2.61  25 2.61  27 2.61  10 2.61  12 2.61  16 2.61  18 2.61
                            36 2.75  42 2.75  54 2.75  39 2.75
  46  0.833  0.167  0.167-   5 2.61  23 2.61  20 2.61   2 2.61  22 2.61   4 2.61  19 2.61   1 2.61
                            37 2.75  49 2.75  28 2.75  52 2.75
  47  0.833  0.167  0.500-   6 2.61  24 2.61  21 2.61   3 2.61  23 2.61   5 2.61  20 2.61   2 2.61
                            38 2.75  50 2.75  29 2.75  53 2.75
  48  0.833  0.167  0.833-   4 2.61   6 2.61  22 2.61  24 2.61  19 2.61  21 2.61   1 2.61   3 2.61
                            39 2.75  51 2.75  30 2.75  54 2.75
  49  0.833  0.500  0.167-   8 2.61  26 2.61  23 2.61   5 2.61  25 2.61   7 2.61  22 2.61   4 2.61
                            40 2.75  46 2.75  52 2.75  31 2.75
  50  0.833  0.500  0.500-   9 2.61  27 2.61  24 2.61   6 2.61  26 2.61   8 2.61  23 2.61   5 2.61
                            41 2.75  47 2.75  53 2.75  32 2.75
  51  0.833  0.500  0.833-   7 2.61   9 2.61  25 2.61  27 2.61  22 2.61  24 2.61   4 2.61   6 2.61
                            42 2.75  48 2.75  54 2.75  33 2.75
  52  0.833  0.833  0.167-   2 2.61   8 2.61  20 2.61  26 2.61  19 2.61   7 2.61  25 2.61   1 2.61
                            43 2.75  49 2.75  46 2.75  34 2.75
  53  0.833  0.833  0.500-   3 2.61   9 2.61  21 2.61  27 2.61  20 2.61   8 2.61  26 2.61   2 2.61
                            44 2.75  50 2.75  47 2.75  35 2.75
  54  0.833  0.833  0.833-   1 2.61   3 2.61   7 2.61   9 2.61  19 2.61  21 2.61  25 2.61  27 2.61
                            45 2.75  51 2.75  48 2.75  36 2.75
 
  LATTYP: Found a simple tetragonal cell.
 ALAT       =     8.2501481662
 C/A-ratio  =     1.2642089792
  
  Lattice vectors:
  
 A1 = (   8.2501481662,   0.0000000000,   0.0000000000)
 A2 = (   0.0000000000,   8.2501481662,   0.0000000000)
 A3 = (   0.0000000000,   0.0000000000,  10.4299113916)


Analysis of symmetry for initial positions (statically):
=====================================================================
 Subroutine PRICEL returns following result:
 
  LATTYP: Found a simple tetragonal cell.
 ALAT       =     2.7500493888
 C/A-ratio  =     1.2642089792
  
  Lattice vectors:
  
 A1 = (   2.7500493888,   0.0000000000,   0.0000000000)
 A2 = (   0.0000000000,   2.7500493888,   0.0000000000)
 A3 = (   0.0000000000,   0.0000000000,   3.4766371306)
 
  27 primitive cells build up your supercell.
 

 Routine SETGRP: Setting up the symmetry group for a 
 simple tetragonal supercell.


 Subroutine GETGRP returns: Found 16 space group operations
 (whereof 16 operations were pure point group operations)
 out of a pool of 16 trial point group operations.


The static configuration has the point symmetry D_4h.


Analysis of symmetry for dynamics (positions and initial velocities):
=====================================================================
 Subroutine PRICEL returns following result:
 
  LATTYP: Found a simple tetragonal cell.
 ALAT       =     2.7500493888
 C/A-ratio  =     1.2642089792
  
  Lattice vectors:
  
 A1 = (   2.7500493888,   0.0000000000,   0.0000000000)
 A2 = (   0.0000000000,   2.7500493888,   0.0000000000)
 A3 = (   0.0000000000,   0.0000000000,   3.4766371306)
 
  27 primitive cells build up your supercell.
 

 Routine SETGRP: Setting up the symmetry group for a 
 simple tetragonal supercell.


 Subroutine GETGRP returns: Found 16 space group operations
 (whereof 16 operations were pure point group operations)
 out of a pool of 16 trial point group operations.


The dynamic configuration has the point symmetry D_4h.


Analysis of structural, dynamic, and magnetic symmetry:
=====================================================================
 Subroutine PRICEL returns:
 Original cell was already a primitive cell.
 

 Routine SETGRP: Setting up the symmetry group for a 
 simple tetragonal supercell.


 Subroutine GETGRP returns: Found  1 space group operations
 (whereof  1 operations were pure point group operations)
 out of a pool of 16 trial point group operations.


The magnetic configuration has the point symmetry C_1 .


 Subroutine INISYM returns: Found  1 space group operations
 (whereof  1 operations are pure point group operations),
 and found     1 'primitive' translations

 
 
 KPOINTS: automatic KPOINTS                       

Automatic generation of k-mesh.
 generate k-points for:    5    5    4
Space group operators:
 irot       det(A)        alpha          n_x          n_y          n_z        tau_x        tau_y        tau_z
    1     1.000000     0.000001     1.000000     0.000000     0.000000     0.000000     0.000000     0.000000
 
 Subroutine IBZKPT returns following result:
 ===========================================
 
 Found     51 irreducible k-points:
 
 Following reciprocal coordinates:
            Coordinates               Weight
  0.000000  0.000000  0.000000      1.000000
  0.200000  0.000000  0.000000      2.000000
  0.400000  0.000000  0.000000      2.000000
  0.000000  0.200000  0.000000      2.000000
  0.200000  0.200000  0.000000      2.000000
  0.400000  0.200000  0.000000      2.000000
 -0.400000  0.200000  0.000000      2.000000
 -0.200000  0.200000  0.000000      2.000000
  0.000000  0.400000  0.000000      2.000000
  0.200000  0.400000  0.000000      2.000000
  0.400000  0.400000  0.000000      2.000000
 -0.400000  0.400000  0.000000      2.000000
 -0.200000  0.400000  0.000000      2.000000
  0.000000  0.000000  0.250000      2.000000
  0.200000  0.000000  0.250000      2.000000
  0.400000  0.000000  0.250000      2.000000
 -0.400000  0.000000  0.250000      2.000000
 -0.200000  0.000000  0.250000      2.000000
  0.000000  0.200000  0.250000      2.000000
  0.200000  0.200000  0.250000      2.000000
  0.400000  0.200000  0.250000      2.000000
 -0.400000  0.200000  0.250000      2.000000
 -0.200000  0.200000  0.250000      2.000000
  0.000000  0.400000  0.250000      2.000000
  0.200000  0.400000  0.250000      2.000000
  0.400000  0.400000  0.250000      2.000000
 -0.400000  0.400000  0.250000      2.000000
 -0.200000  0.400000  0.250000      2.000000
  0.000000 -0.400000  0.250000      2.000000
  0.200000 -0.400000  0.250000      2.000000
  0.400000 -0.400000  0.250000      2.000000
 -0.400000 -0.400000  0.250000      2.000000
 -0.200000 -0.400000  0.250000      2.000000
  0.000000 -0.200000  0.250000      2.000000
  0.200000 -0.200000  0.250000      2.000000
  0.400000 -0.200000  0.250000      2.000000
 -0.400000 -0.200000  0.250000      2.000000
 -0.200000 -0.200000  0.250000      2.000000
  0.000000  0.000000  0.500000      1.000000
  0.200000  0.000000  0.500000      2.000000
  0.400000  0.000000  0.500000      2.000000
  0.000000  0.200000  0.500000      2.000000
  0.200000  0.200000  0.500000      2.000000
  0.400000  0.200000  0.500000      2.000000
 -0.400000  0.200000  0.500000      2.000000
 -0.200000  0.200000  0.500000      2.000000
  0.000000  0.400000  0.500000      2.000000
  0.200000  0.400000  0.500000      2.000000
  0.400000  0.400000  0.500000      2.000000
 -0.400000  0.400000  0.500000      2.000000
 -0.200000  0.400000  0.500000      2.000000
 
 Following cartesian coordinates:
            Coordinates               Weight
  0.000000  0.000000  0.000000      1.000000
  0.024242  0.000000  0.000000      2.000000
  0.048484  0.000000  0.000000      2.000000
  0.000000  0.024242  0.000000      2.000000
  0.024242  0.024242  0.000000      2.000000
  0.048484  0.024242  0.000000      2.000000
 -0.048484  0.024242  0.000000      2.000000
 -0.024242  0.024242  0.000000      2.000000
  0.000000  0.048484  0.000000      2.000000
  0.024242  0.048484  0.000000      2.000000
  0.048484  0.048484  0.000000      2.000000
 -0.048484  0.048484  0.000000      2.000000
 -0.024242  0.048484  0.000000      2.000000
  0.000000  0.000000  0.023970      2.000000
  0.024242  0.000000  0.023970      2.000000
  0.048484  0.000000  0.023970      2.000000
 -0.048484  0.000000  0.023970      2.000000
 -0.024242  0.000000  0.023970      2.000000
  0.000000  0.024242  0.023970      2.000000
  0.024242  0.024242  0.023970      2.000000
  0.048484  0.024242  0.023970      2.000000
 -0.048484  0.024242  0.023970      2.000000
 -0.024242  0.024242  0.023970      2.000000
  0.000000  0.048484  0.023970      2.000000
  0.024242  0.048484  0.023970      2.000000
  0.048484  0.048484  0.023970      2.000000
 -0.048484  0.048484  0.023970      2.000000
 -0.024242  0.048484  0.023970      2.000000
  0.000000 -0.048484  0.023970      2.000000
  0.024242 -0.048484  0.023970      2.000000
  0.048484 -0.048484  0.023970      2.000000
 -0.048484 -0.048484  0.023970      2.000000
 -0.024242 -0.048484  0.023970      2.000000
  0.000000 -0.024242  0.023970      2.000000
  0.024242 -0.024242  0.023970      2.000000
  0.048484 -0.024242  0.023970      2.000000
 -0.048484 -0.024242  0.023970      2.000000
 -0.024242 -0.024242  0.023970      2.000000
  0.000000  0.000000  0.047939      1.000000
  0.024242  0.000000  0.047939      2.000000
  0.048484  0.000000  0.047939      2.000000
  0.000000  0.024242  0.047939      2.000000
  0.024242  0.024242  0.047939      2.000000
  0.048484  0.024242  0.047939      2.000000
 -0.048484  0.024242  0.047939      2.000000
 -0.024242  0.024242  0.047939      2.000000
  0.000000  0.048484  0.047939      2.000000
  0.024242  0.048484  0.047939      2.000000
  0.048484  0.048484  0.047939      2.000000
 -0.048484  0.048484  0.047939      2.000000
 -0.024242  0.048484  0.047939      2.000000
 


--------------------------------------------------------------------------------------------------------




 Dimension of arrays:
   k-points           NKPTS =     51   k-points in BZ     NKDIM =     51   number of bands    NBANDS=    174
   number of dos      NEDOS =    301   number of ions     NIONS =     54
   non local maximal  LDIM  =      6   non local SUM 2l+1 LMDIM =     18
   total plane-waves  NPLWV = 204120
   max r-space proj   IRMAX =      1   max aug-charges    IRDMAX=  89713
   dimension x,y,z NGX =    54 NGY =   54 NGZ =   70
   dimension x,y,z NGXF=   108 NGYF=  108 NGZF=  140
   support grid    NGXF=   216 NGYF=  216 NGZF=  280
   ions per type =              27  27
   NGX,Y,Z   is equivalent  to a cutoff of  10.88, 10.88, 11.16 a.u.
   NGXF,Y,Z  is equivalent  to a cutoff of  21.76, 21.76, 22.32 a.u.

 SYSTEM =  AlMn_pv                                 
 POSCAR =  NewRef: 27, @ ['Mn', array([1.37502469, 

 Startparameter for this run:
   NWRITE =      2    write-flag & timer
   PREC   = accura    normal or accurate (medium, high low for compatibility)
   ISTART =      0    job   : 0-new  1-cont  2-samecut
   ICHARG =      2    charge: 1-file 2-atom 10-const
   ISPIN  =      2    spin polarized calculation?
   LNONCOLLINEAR =      F non collinear calculations
   LSORBIT =      F    spin-orbit coupling
   INIWAV =      1    electr: 0-lowe 1-rand  2-diag
   LASPH  =      F    aspherical Exc in radial PAW
   METAGGA=      F    non-selfconsistent MetaGGA calc.

 Electronic Relaxation 1
   ENCUT  =  404.8 eV  29.75 Ry    5.45 a.u.  13.53 13.53 17.11*2*pi/ulx,y,z
   ENINI  =  404.8     initial cutoff
   ENAUG  =  500.7 eV  augmentation charge cutoff
   NELM   =    100;   NELMIN=  4; NELMDL= -8     # of ELM steps 
   EDIFF  = 0.1E-06   stopping-criterion for ELM
   LREAL  =      F    real-space projection
   NLSPLINE    = F    spline interpolate recip. space projectors
   LCOMPAT=      F    compatible to vasp.4.4
   GGA_COMPAT  = T    GGA compatible to vasp.4.4-vasp.4.6
   LMAXPAW     = -100 max onsite density
   LMAXMIX     =    2 max onsite mixed and CHGCAR
   VOSKOWN=      0    Vosko Wilk Nusair interpolation
   ROPT   =    0.00000   0.00000
 Ionic relaxation
   EDIFFG = 0.1E-05   stopping-criterion for IOM
   NSW    =      0    number of steps for IOM
   NBLOCK =      1;   KBLOCK =      1    inner block; outer block 
   IBRION =     -1    ionic relax: 0-MD 1-quasi-New 2-CG
   NFREE  =      0    steps in history (QN), initial steepest desc. (CG)
   ISIF   =      2    stress and relaxation
   IWAVPR =     10    prediction:  0-non 1-charg 2-wave 3-comb
   ISYM   =      2    0-nonsym 1-usesym 2-fastsym
   LCORR  =      T    Harris-Foulkes like correction to forces

   POTIM  = 0.2000    time-step for ionic-motion
   TEIN   =    0.0    initial temperature
   TEBEG  =    0.0;   TEEND  =   0.0 temperature during run
   SMASS  =  -3.00    Nose mass-parameter (am)
   estimated Nose-frequenzy (Omega)   =  0.10E-29 period in steps =****** mass=  -0.156E-26a.u.
   SCALEE = 1.0000    scale energy and forces
   NPACO  =    256;   APACO  = 16.0  distance and # of slots for P.C.
   PSTRESS=    0.0 pullay stress

  Mass of Ions in am
   POMASS =  26.98 54.94
  Ionic Valenz
   ZVAL   =   3.00  7.00
  Atomic Wigner-Seitz radii
   RWIGS  =  -1.00 -1.00
  virtual crystal weights 
   VCA    =   1.00  1.00
   NELECT =     270.0000    total number of electrons
   NUPDOWN=      -1.0000    fix difference up-down

 DOS related values:
   EMIN   =  10.00;   EMAX   =-10.00  energy-range for DOS
   EFERMI =   0.00
   ISMEAR =     1;   SIGMA  =   0.20  broadening in eV -4-tet -1-fermi 0-gaus

 Electronic relaxation 2 (details)
   IALGO  =     58    algorithm
   LDIAG  =      T    sub-space diagonalisation (order eigenvalues)
   LSUBROT=      F    optimize rotation matrix (better conditioning)
   TURBO    =      0    0=normal 1=particle mesh
   IRESTART =      0    0=no restart 2=restart with 2 vectors
   NREBOOT  =      0    no. of reboots
   NMIN     =      0    reboot dimension
   EREF     =   0.00    reference energy to select bands
   IMIX   =      4    mixing-type and parameters
     AMIX     =   0.40;   BMIX     =  1.00
     AMIX_MAG =   1.60;   BMIX_MAG =  1.00
     AMIN     =   0.10
     WC   =   100.;   INIMIX=   1;  MIXPRE=   1;  MAXMIX= -45

 Intra band minimization:
   WEIMIN = 0.0000     energy-eigenvalue tresh-hold
   EBREAK =  0.14E-09  absolut break condition
   DEPER  =   0.30     relativ break condition  

   TIME   =   0.40     timestep for ELM

  volume/ion in A,a.u.               =      13.15        88.72
  Fermi-wavevector in a.u.,A,eV,Ry     =   1.186118  2.241439 19.141722  1.406877
  Thomas-Fermi vector in A             =   2.322298
 
 Write flags
   LWAVE        =      F    write WAVECAR
   LDOWNSAMPLE  =      F    k-point downsampling of WAVECAR
   LCHARG       =      F    write CHGCAR
   LVTOT        =      F    write LOCPOT, total local potential
   LVHAR        =      F    write LOCPOT, Hartree potential only
   LELF         =      F    write electronic localiz. function (ELF)
   LORBIT       =     10    0 simple, 1 ext, 2 COOP (PROOUT), +10 PAW based schemes


 Dipole corrections
   LMONO  =      F    monopole corrections only (constant potential shift)
   LDIPOL =      F    correct potential (dipole corrections)
   IDIPOL =      0    1-x, 2-y, 3-z, 4-all directions 
   EPSILON=  1.0000000 bulk dielectric constant

 Exchange correlation treatment:
   GGA     =    --    GGA type
   LEXCH   =     8    internal setting for exchange type
   VOSKOWN=      0    Vosko Wilk Nusair interpolation
   LHFCALC =     F    Hartree Fock is set to
   LHFONE  =     F    Hartree Fock one center treatment
   AEXX    =    0.0000 exact exchange contribution

 Linear response parameters
   LEPSILON=     F    determine dielectric tensor
   LRPA    =     F    only Hartree local field effects (RPA)
   LNABLA  =     F    use nabla operator in PAW spheres
   LVEL    =     F    velocity operator in full k-point grid
   LINTERFAST=   F  fast interpolation
   KINTER  =     0    interpolate to denser k-point grid
   CSHIFT  =0.1000    complex shift for real part using Kramers Kronig
   OMEGAMAX=  -1.0    maximum frequency
   DEG_THRESHOLD= 0.2000000E-02 threshold for treating states as degnerate
   RTIME   =   -0.100 relaxation time in fs
  (WPLASMAI=    0.000 imaginary part of plasma frequency in eV, 0.658/RTIME)
   DFIELD  = 0.0000000 0.0000000 0.0000000 field for delta impulse in time
 
 Orbital magnetization related:
   ORBITALMAG=     F  switch on orbital magnetization
   LCHIMAG   =     F  perturbation theory with respect to B field
   DQ        =  0.001000  dq finite difference perturbation B field
   LLRAUG    =     F  two centre corrections for induced B field



--------------------------------------------------------------------------------------------------------


 Static calculation
 charge density and potential will be updated during run
 spin polarized calculation
 Conjugate gradient for all bands (Freysoldt, et al. PRB 79, 241103 (2009))
 preconditioned conjugated gradient                                        
 perform sub-space diagonalisation
    before iterative eigenvector-optimisation
 modified Broyden-mixing scheme, WC =      100.0
 initial mixing is a Kerker type mixing with AMIX =  0.4000 and BMIX =      1.0000
 Hartree-type preconditioning will be used
 using additional bands           39
 reciprocal scheme for non local part
 use partial core corrections
 no Harris-corrections to forces 
 use gradient corrections 
 use of overlap-Matrix (Vanderbilt PP)
 Methfessel and Paxton  Order N= 1 SIGMA  =   0.20


--------------------------------------------------------------------------------------------------------


  energy-cutoff  :      404.80
  volume of cell :      709.91
      direct lattice vectors                 reciprocal lattice vectors
     8.250148166  0.000000000  0.000000000     0.121209944  0.000000000  0.000000000
     0.000000000  8.250148166  0.000000000     0.000000000  0.121209944  0.000000000
     0.000000000  0.000000000 10.429911392     0.000000000  0.000000000  0.095878092

  length of vectors
     8.250148166  8.250148166 10.429911392     0.121209944  0.121209944  0.095878092


 
 k-points in units of 2pi/SCALE and weight: automatic KPOINTS                       
   0.00000000  0.00000000  0.00000000       0.010
   0.02424199  0.00000000  0.00000000       0.020
   0.04848398  0.00000000  0.00000000       0.020
   0.00000000  0.02424199  0.00000000       0.020
   0.02424199  0.02424199  0.00000000       0.020
   0.04848398  0.02424199  0.00000000       0.020
  -0.04848398  0.02424199  0.00000000       0.020
  -0.02424199  0.02424199  0.00000000       0.020
   0.00000000  0.04848398  0.00000000       0.020
   0.02424199  0.04848398  0.00000000       0.020
   0.04848398  0.04848398  0.00000000       0.020
  -0.04848398  0.04848398  0.00000000       0.020
  -0.02424199  0.04848398  0.00000000       0.020
   0.00000000  0.00000000  0.02396952       0.020
   0.02424199  0.00000000  0.02396952       0.020
   0.04848398  0.00000000  0.02396952       0.020
  -0.04848398  0.00000000  0.02396952       0.020
  -0.02424199  0.00000000  0.02396952       0.020
   0.00000000  0.02424199  0.02396952       0.020
   0.02424199  0.02424199  0.02396952       0.020
   0.04848398  0.02424199  0.02396952       0.020
  -0.04848398  0.02424199  0.02396952       0.020
  -0.02424199  0.02424199  0.02396952       0.020
   0.00000000  0.04848398  0.02396952       0.020
   0.02424199  0.04848398  0.02396952       0.020
   0.04848398  0.04848398  0.02396952       0.020
  -0.04848398  0.04848398  0.02396952       0.020
  -0.02424199  0.04848398  0.02396952       0.020
   0.00000000 -0.04848398  0.02396952       0.020
   0.02424199 -0.04848398  0.02396952       0.020
   0.04848398 -0.04848398  0.02396952       0.020
  -0.04848398 -0.04848398  0.02396952       0.020
  -0.02424199 -0.04848398  0.02396952       0.020
   0.00000000 -0.02424199  0.02396952       0.020
   0.02424199 -0.02424199  0.02396952       0.020
   0.04848398 -0.02424199  0.02396952       0.020
  -0.04848398 -0.02424199  0.02396952       0.020
  -0.02424199 -0.02424199  0.02396952       0.020
   0.00000000  0.00000000  0.04793905       0.010
   0.02424199  0.00000000  0.04793905       0.020
   0.04848398  0.00000000  0.04793905       0.020
   0.00000000  0.02424199  0.04793905       0.020
   0.02424199  0.02424199  0.04793905       0.020
   0.04848398  0.02424199  0.04793905       0.020
  -0.04848398  0.02424199  0.04793905       0.020
  -0.02424199  0.02424199  0.04793905       0.020
   0.00000000  0.04848398  0.04793905       0.020
   0.02424199  0.04848398  0.04793905       0.020
   0.04848398  0.04848398  0.04793905       0.020
  -0.04848398  0.04848398  0.04793905       0.020
  -0.02424199  0.04848398  0.04793905       0.020
 
 k-points in reciprocal lattice and weights: automatic KPOINTS                       
   0.00000000  0.00000000  0.00000000       0.010
   0.20000000  0.00000000  0.00000000       0.020
   0.40000000  0.00000000  0.00000000       0.020
   0.00000000  0.20000000  0.00000000       0.020
   0.20000000  0.20000000  0.00000000       0.020
   0.40000000  0.20000000  0.00000000       0.020
  -0.40000000  0.20000000  0.00000000       0.020
  -0.20000000  0.20000000  0.00000000       0.020
   0.00000000  0.40000000  0.00000000       0.020
   0.20000000  0.40000000  0.00000000       0.020
   0.40000000  0.40000000  0.00000000       0.020
  -0.40000000  0.40000000  0.00000000       0.020
  -0.20000000  0.40000000  0.00000000       0.020
   0.00000000  0.00000000  0.25000000       0.020
   0.20000000  0.00000000  0.25000000       0.020
   0.40000000  0.00000000  0.25000000       0.020
  -0.40000000  0.00000000  0.25000000       0.020
  -0.20000000  0.00000000  0.25000000       0.020
   0.00000000  0.20000000  0.25000000       0.020
   0.20000000  0.20000000  0.25000000       0.020
   0.40000000  0.20000000  0.25000000       0.020
  -0.40000000  0.20000000  0.25000000       0.020
  -0.20000000  0.20000000  0.25000000       0.020
   0.00000000  0.40000000  0.25000000       0.020
   0.20000000  0.40000000  0.25000000       0.020
   0.40000000  0.40000000  0.25000000       0.020
  -0.40000000  0.40000000  0.25000000       0.020
  -0.20000000  0.40000000  0.25000000       0.020
   0.00000000 -0.40000000  0.25000000       0.020
   0.20000000 -0.40000000  0.25000000       0.020
   0.40000000 -0.40000000  0.25000000       0.020
  -0.40000000 -0.40000000  0.25000000       0.020
  -0.20000000 -0.40000000  0.25000000       0.020
   0.00000000 -0.20000000  0.25000000       0.020
   0.20000000 -0.20000000  0.25000000       0.020
   0.40000000 -0.20000000  0.25000000       0.020
  -0.40000000 -0.20000000  0.25000000       0.020
  -0.20000000 -0.20000000  0.25000000       0.020
   0.00000000  0.00000000  0.50000000       0.010
   0.20000000  0.00000000  0.50000000       0.020
   0.40000000  0.00000000  0.50000000       0.020
   0.00000000  0.20000000  0.50000000       0.020
   0.20000000  0.20000000  0.50000000       0.020
   0.40000000  0.20000000  0.50000000       0.020
  -0.40000000  0.20000000  0.50000000       0.020
  -0.20000000  0.20000000  0.50000000       0.020
   0.00000000  0.40000000  0.50000000       0.020
   0.20000000  0.40000000  0.50000000       0.020
   0.40000000  0.40000000  0.50000000       0.020
  -0.40000000  0.40000000  0.50000000       0.020
  -0.20000000  0.40000000  0.50000000       0.020
 
 position of ions in fractional coordinates (direct lattice) 
   0.00000000  0.00000000  0.00000000
   0.00000000  0.00000000  0.33333333
   0.00000000  0.00000000  0.66666667
   0.00000000  0.33333333  0.00000000
   0.00000000  0.33333333  0.33333333
   0.00000000  0.33333333  0.66666667
   0.00000000  0.66666667  0.00000000
   0.00000000  0.66666667  0.33333333
   0.00000000  0.66666667  0.66666667
   0.33333333  0.00000000  0.00000000
   0.33333333  0.00000000  0.33333333
   0.33333333  0.00000000  0.66666667
   0.33333333  0.33333333  0.00000000
   0.33333333  0.33333333  0.33333333
   0.33333333  0.33333333  0.66666667
   0.33333333  0.66666667  0.00000000
   0.33333333  0.66666667  0.33333333
   0.33333333  0.66666667  0.66666667
   0.66666667  0.00000000  0.00000000
   0.66666667  0.00000000  0.33333333
   0.66666667  0.00000000  0.66666667
   0.66666667  0.33333333  0.00000000
   0.66666667  0.33333333  0.33333333
   0.66666667  0.33333333  0.66666667
   0.66666667  0.66666667  0.00000000
   0.66666667  0.66666667  0.33333333
   0.66666667  0.66666667  0.66666667
   0.16666667  0.16666667  0.16666667
   0.16666667  0.16666667  0.50000000
   0.16666667  0.16666667  0.83333333
   0.16666667  0.50000000  0.16666667
   0.16666667  0.50000000  0.50000000
   0.16666667  0.50000000  0.83333333
   0.16666667  0.83333333  0.16666667
   0.16666667  0.83333333  0.50000000
   0.16666667  0.83333333  0.83333333
   0.50000000  0.16666667  0.16666667
   0.50000000  0.16666667  0.50000000
   0.50000000  0.16666667  0.83333333
   0.50000000  0.50000000  0.16666667
   0.50000000  0.50000000  0.50000000
   0.50000000  0.50000000  0.83333333
   0.50000000  0.83333333  0.16666667
   0.50000000  0.83333333  0.50000000
   0.50000000  0.83333333  0.83333333
   0.83333333  0.16666667  0.16666667
   0.83333333  0.16666667  0.50000000
   0.83333333  0.16666667  0.83333333
   0.83333333  0.50000000  0.16666667
   0.83333333  0.50000000  0.50000000
   0.83333333  0.50000000  0.83333333
   0.83333333  0.83333333  0.16666667
   0.83333333  0.83333333  0.50000000
   0.83333333  0.83333333  0.83333333
 
 position of ions in cartesian coordinates  (Angst):
   0.00000000  0.00000000  0.00000000
   0.00000000  0.00000000  3.47663713
   0.00000000  0.00000000  6.95327426
   0.00000000  2.75004939  0.00000000
   0.00000000  2.75004939  3.47663713
   0.00000000  2.75004939  6.95327426
   0.00000000  5.50009878  0.00000000
   0.00000000  5.50009878  3.47663713
   0.00000000  5.50009878  6.95327426
   2.75004939  0.00000000  0.00000000
   2.75004939  0.00000000  3.47663713
   2.75004939  0.00000000  6.95327426
   2.75004939  2.75004939  0.00000000
   2.75004939  2.75004939  3.47663713
   2.75004939  2.75004939  6.95327426
   2.75004939  5.50009878  0.00000000
   2.75004939  5.50009878  3.47663713
   2.75004939  5.50009878  6.95327426
   5.50009878  0.00000000  0.00000000
   5.50009878  0.00000000  3.47663713
   5.50009878  0.00000000  6.95327426
   5.50009878  2.75004939  0.00000000
   5.50009878  2.75004939  3.47663713
   5.50009878  2.75004939  6.95327426
   5.50009878  5.50009878  0.00000000
   5.50009878  5.50009878  3.47663713
   5.50009878  5.50009878  6.95327426
   1.37502469  1.37502469  1.73831857
   1.37502469  1.37502469  5.21495570
   1.37502469  1.37502469  8.69159283
   1.37502469  4.12507408  1.73831857
   1.37502469  4.12507408  5.21495570
   1.37502469  4.12507408  8.69159283
   1.37502469  6.87512347  1.73831857
   1.37502469  6.87512347  5.21495570
   1.37502469  6.87512347  8.69159283
   4.12507408  1.37502469  1.73831857
   4.12507408  1.37502469  5.21495570
   4.12507408  1.37502469  8.69159283
   4.12507408  4.12507408  1.73831857
   4.12507408  4.12507408  5.21495570
   4.12507408  4.12507408  8.69159283
   4.12507408  6.87512347  1.73831857
   4.12507408  6.87512347  5.21495570
   4.12507408  6.87512347  8.69159283
   6.87512347  1.37502469  1.73831857
   6.87512347  1.37502469  5.21495570
   6.87512347  1.37502469  8.69159283
   6.87512347  4.12507408  1.73831857
   6.87512347  4.12507408  5.21495570
   6.87512347  4.12507408  8.69159283
   6.87512347  6.87512347  1.73831857
   6.87512347  6.87512347  5.21495570
   6.87512347  6.87512347  8.69159283
 


--------------------------------------------------------------------------------------------------------


 k-point  1 :   0.0000 0.0000 0.0000  plane waves:   13099
 k-point  2 :   0.2000 0.0000 0.0000  plane waves:   13101
 k-point  3 :   0.4000 0.0000 0.0000  plane waves:   13111
 k-point  4 :   0.0000 0.2000 0.0000  plane waves:   13101
 k-point  5 :   0.2000 0.2000 0.0000  plane waves:   13137
 k-point  6 :   0.4000 0.2000 0.0000  plane waves:   13119
 k-point  7 :  -0.4000 0.2000 0.0000  plane waves:   13119
 k-point  8 :  -0.2000 0.2000 0.0000  plane waves:   13137
 k-point  9 :   0.0000 0.4000 0.0000  plane waves:   13111
 k-point 10 :   0.2000 0.4000 0.0000  plane waves:   13119
 k-point 11 :   0.4000 0.4000 0.0000  plane waves:   13129
 k-point 12 :  -0.4000 0.4000 0.0000  plane waves:   13129
 k-point 13 :  -0.2000 0.4000 0.0000  plane waves:   13119
 k-point 14 :   0.0000 0.0000 0.2500  plane waves:   13134
 k-point 15 :   0.2000 0.0000 0.2500  plane waves:   13149
 k-point 16 :   0.4000 0.0000 0.2500  plane waves:   13119
 k-point 17 :  -0.4000 0.0000 0.2500  plane waves:   13119
 k-point 18 :  -0.2000 0.0000 0.2500  plane waves:   13149
 k-point 19 :   0.0000 0.2000 0.2500  plane waves:   13149
 k-point 20 :   0.2000 0.2000 0.2500  plane waves:   13145
 k-point 21 :   0.4000 0.2000 0.2500  plane waves:   13134
 k-point 22 :  -0.4000 0.2000 0.2500  plane waves:   13134
 k-point 23 :  -0.2000 0.2000 0.2500  plane waves:   13145
 k-point 24 :   0.0000 0.4000 0.2500  plane waves:   13119
 k-point 25 :   0.2000 0.4000 0.2500  plane waves:   13134
 k-point 26 :   0.4000 0.4000 0.2500  plane waves:   13108
 k-point 27 :  -0.4000 0.4000 0.2500  plane waves:   13108
 k-point 28 :  -0.2000 0.4000 0.2500  plane waves:   13134
 k-point 29 :   0.0000-0.4000 0.2500  plane waves:   13119
 k-point 30 :   0.2000-0.4000 0.2500  plane waves:   13134
 k-point 31 :   0.4000-0.4000 0.2500  plane waves:   13108
 k-point 32 :  -0.4000-0.4000 0.2500  plane waves:   13108
 k-point 33 :  -0.2000-0.4000 0.2500  plane waves:   13134
 k-point 34 :   0.0000-0.2000 0.2500  plane waves:   13149
 k-point 35 :   0.2000-0.2000 0.2500  plane waves:   13145
 k-point 36 :   0.4000-0.2000 0.2500  plane waves:   13134
 k-point 37 :  -0.4000-0.2000 0.2500  plane waves:   13134
 k-point 38 :  -0.2000-0.2000 0.2500  plane waves:   13145
 k-point 39 :   0.0000 0.0000 0.5000  plane waves:   13186
 k-point 40 :   0.2000 0.0000 0.5000  plane waves:   13124
 k-point 41 :   0.4000 0.0000 0.5000  plane waves:   13152
 k-point 42 :   0.0000 0.2000 0.5000  plane waves:   13124
 k-point 43 :   0.2000 0.2000 0.5000  plane waves:   13136
 k-point 44 :   0.4000 0.2000 0.5000  plane waves:   13128
 k-point 45 :  -0.4000 0.2000 0.5000  plane waves:   13128
 k-point 46 :  -0.2000 0.2000 0.5000  plane waves:   13136
 k-point 47 :   0.0000 0.4000 0.5000  plane waves:   13152
 k-point 48 :   0.2000 0.4000 0.5000  plane waves:   13128
 k-point 49 :   0.4000 0.4000 0.5000  plane waves:   13112
 k-point 50 :  -0.4000 0.4000 0.5000  plane waves:   13112
 k-point 51 :  -0.2000 0.4000 0.5000  plane waves:   13128

 maximum and minimum number of plane-waves per node :      3327     3200

 maximum number of plane-waves:     13186
 maximum index in each direction: 
   IXMAX=   13   IYMAX=   13   IZMAX=   17
   IXMIN=  -13   IYMIN=  -13   IZMIN=  -17


 parallel 3D FFT for wavefunctions:
    minimum data exchange during FFTs selected (reduces bandwidth)
 parallel 3D FFT for charge:
    minimum data exchange during FFTs selected (reduces bandwidth)


 total amount of memory used by VASP MPI-rank0  1622301. kBytes
=======================================================================

   base      :      30000. kBytes
   nonl-proj :      51477. kBytes
   fftplans  :      31580. kBytes
   grid      :      21385. kBytes
   one-center:        435. kBytes
   wavefun   :    1487424. kBytes
 
     INWAV:  cpu time    0.0001: real time    0.0001
 Broyden mixing: mesh for mixing (old mesh)
   NGX = 27   NGY = 27   NGZ = 35
  (NGX  =108   NGY  =108   NGZ  =140)
  gives a total of  25515 points

 initial charge density was supplied:
 charge density of overlapping atoms calculated
 number of electron     270.0000000 magnetization      21.0000000
 keeping initial charge density in first step


--------------------------------------------------------------------------------------------------------


 Maximum index for augmentation-charges        10967 (set IRDMAX)


--------------------------------------------------------------------------------------------------------


 First call to EWALD:  gamma=   0.199
 Maximum number of real-space cells 3x 3x 2
 Maximum number of reciprocal cells 3x 3x 3

    FEWALD:  cpu time    0.0025: real time    0.0025


--------------------------------------- Iteration      1(   1)  ---------------------------------------


    POTLOK:  cpu time    0.3984: real time    0.3990
    SETDIJ:  cpu time    0.4718: real time    0.4726
    TRIAL :  cpu time   57.8663: real time   59.6905
    CORREC:  cpu time    0.0102: real time    0.0111
    --------------------------------------------
      LOOP:  cpu time   59.2509: real time   61.0836

 eigenvalue-minimisations  : 35496
 total energy-change (2. order) : 0.2034528E+04  (-0.8867842E+04)
 number of electron     270.0000000 magnetization      21.0000000
 augmentation part      270.0000000 magnetization      21.0000000

 Free energy of the ion-electron system (eV)
  ---------------------------------------------------
  alpha Z        PSCENC =       798.38614055
  Ewald energy   TEWEN  =    -12901.57693327
  -Hartree energ DENC   =     -2855.60785864
  -exchange      EXHF   =         0.00000000
  -V(xc)+E(xc)   XCENC  =      -996.21000395
  PAW double counting   =     12741.82587617   -11476.22345381
  entropy T*S    EENTRO =         0.00355901
  eigenvalues    EBANDS =      4026.25708584
  atomic energy  EATOM  =     12697.67401269
  ---------------------------------------------------
  free energy    TOTEN  =      2034.52842457 eV

  energy without entropy =     2034.52486557  energy(sigma->0) =     2034.52723824


--------------------------------------------------------------------------------------------------------




--------------------------------------- Iteration      1(   2)  ---------------------------------------


    TRIAL :  cpu time   58.8145: real time   59.2751
    CORREC:  cpu time    0.0124: real time    0.0133
    --------------------------------------------
      LOOP:  cpu time   58.8279: real time   59.2913

 eigenvalue-minimisations  : 35496
 total energy-change (2. order) :-0.2130151E+04  (-0.2071941E+04)
 number of electron     270.0000000 magnetization      21.0000000
 augmentation part      270.0000000 magnetization      21.0000000

 Free energy of the ion-electron system (eV)
  ---------------------------------------------------
  alpha Z        PSCENC =       798.38614055
  Ewald energy   TEWEN  =    -12901.57693327
  -Hartree energ DENC   =     -2855.60785864
  -exchange      EXHF   =         0.00000000
  -V(xc)+E(xc)   XCENC  =      -996.21000395
  PAW double counting   =     12741.82587617   -11476.22345381
  entropy T*S    EENTRO =        -0.00417807
  eigenvalues    EBANDS =      1896.11407512
  atomic energy  EATOM  =     12697.67401269
  ---------------------------------------------------
  free energy    TOTEN  =       -95.62232323 eV

  energy without entropy =      -95.61814516  energy(sigma->0) =      -95.62093054


--------------------------------------------------------------------------------------------------------




--------------------------------------- Iteration      1(   3)  ---------------------------------------


    TRIAL :  cpu time   81.1659: real time   82.5989
    CORREC:  cpu time    0.0143: real time    0.0152
    --------------------------------------------
      LOOP:  cpu time   81.1815: real time   82.6172

 eigenvalue-minimisations  : 53278
 total energy-change (2. order) :-0.2607455E+03  (-0.2299264E+03)
 number of electron     270.0000000 magnetization      21.0000000
 augmentation part      270.0000000 magnetization      21.0000000

 Free energy of the ion-electron system (eV)
  ---------------------------------------------------
  alpha Z        PSCENC =       798.38614055
  Ewald energy   TEWEN  =    -12901.57693327
  -Hartree energ DENC   =     -2855.60785864
  -exchange      EXHF   =         0.00000000
  -V(xc)+E(xc)   XCENC  =      -996.21000395
  PAW double counting   =     12741.82587617   -11476.22345381
  entropy T*S    EENTRO =         0.00313144
  eigenvalues    EBANDS =      1635.36129619
  atomic energy  EATOM  =     12697.67401269
  ---------------------------------------------------
  free energy    TOTEN  =      -356.36779264 eV

  energy without entropy =     -356.37092408  energy(sigma->0) =     -356.36883646


--------------------------------------------------------------------------------------------------------




--------------------------------------- Iteration      1(   4)  ---------------------------------------


    TRIAL :  cpu time   86.1350: real time   86.7333
    CORREC:  cpu time    0.0148: real time    0.0157
    --------------------------------------------
      LOOP:  cpu time   86.1507: real time   86.7520

 eigenvalue-minimisations  : 57664
 total energy-change (2. order) :-0.4290935E+02  (-0.3753218E+02)
 number of electron     270.0000000 magnetization      21.0000000
 augmentation part      270.0000000 magnetization      21.0000000

 Free energy of the ion-electron system (eV)
  ---------------------------------------------------
  alpha Z        PSCENC =       798.38614055
  Ewald energy   TEWEN  =    -12901.57693327
  -Hartree energ DENC   =     -2855.60785864
  -exchange      EXHF   =         0.00000000
  -V(xc)+E(xc)   XCENC  =      -996.21000395
  PAW double counting   =     12741.82587617   -11476.22345381
  entropy T*S    EENTRO =         0.02204517
  eigenvalues    EBANDS =      1592.43303125
  atomic energy  EATOM  =     12697.67401269
  ---------------------------------------------------
  free energy    TOTEN  =      -399.27714385 eV

  energy without entropy =     -399.29918903  energy(sigma->0) =     -399.28449225


--------------------------------------------------------------------------------------------------------




--------------------------------------- Iteration      1(   5)  ---------------------------------------


    TRIAL :  cpu time   88.1561: real time   88.7671
    CORREC:  cpu time    0.0151: real time    0.0160
    --------------------------------------------
      LOOP:  cpu time   88.1726: real time   88.7865

 eigenvalue-minimisations  : 58648
 total energy-change (2. order) :-0.4428608E+01  (-0.4224174E+01)
 number of electron     270.0000000 magnetization      21.0000000
 augmentation part      270.0000000 magnetization      21.0000000

 Free energy of the ion-electron system (eV)
  ---------------------------------------------------
  alpha Z        PSCENC =       798.38614055
  Ewald energy   TEWEN  =    -12901.57693327
  -Hartree energ DENC   =     -2855.60785864
  -exchange      EXHF   =         0.00000000
  -V(xc)+E(xc)   XCENC  =      -996.21000395
  PAW double counting   =     12741.82587617   -11476.22345381
  entropy T*S    EENTRO =         0.02511416
  eigenvalues    EBANDS =      1588.00135399
  atomic energy  EATOM  =     12697.67401269
  ---------------------------------------------------
  free energy    TOTEN  =      -403.70575213 eV

  energy without entropy =     -403.73086628  energy(sigma->0) =     -403.71412351


--------------------------------------------------------------------------------------------------------




--------------------------------------- Iteration      1(   6)  ---------------------------------------


    TRIAL :  cpu time   87.4051: real time   87.9530
    CORREC:  cpu time    0.0154: real time    0.0163
    --------------------------------------------
      LOOP:  cpu time   87.4219: real time   87.9726

 eigenvalue-minimisations  : 58480
 total energy-change (2. order) :-0.3695868E+00  (-0.3621757E+00)
 number of electron     270.0000000 magnetization      21.0000000
 augmentation part      270.0000000 magnetization      21.0000000

 Free energy of the ion-electron system (eV)
  ---------------------------------------------------
  alpha Z        PSCENC =       798.38614055
  Ewald energy   TEWEN  =    -12901.57693327
  -Hartree energ DENC   =     -2855.60785864
  -exchange      EXHF   =         0.00000000
  -V(xc)+E(xc)   XCENC  =      -996.21000395
  PAW double counting   =     12741.82587617   -11476.22345381
  entropy T*S    EENTRO =         0.02604343
  eigenvalues    EBANDS =      1587.63083794
  atomic energy  EATOM  =     12697.67401269
  ---------------------------------------------------
  free energy    TOTEN  =      -404.07533891 eV

  energy without entropy =     -404.10138233  energy(sigma->0) =     -404.08402005


--------------------------------------------------------------------------------------------------------




--------------------------------------- Iteration      1(   7)  ---------------------------------------


    TRIAL :  cpu time   89.6681: real time   91.0286
    CORREC:  cpu time    0.0155: real time    0.0164
    --------------------------------------------
      LOOP:  cpu time   89.6846: real time   91.0481

 eigenvalue-minimisations  : 59512
 total energy-change (2. order) :-0.4061115E-01  (-0.4024067E-01)
 number of electron     270.0000000 magnetization      21.0000000
 augmentation part      270.0000000 magnetization      21.0000000

 Free energy of the ion-electron system (eV)
  ---------------------------------------------------
  alpha Z        PSCENC =       798.38614055
  Ewald energy   TEWEN  =    -12901.57693327
  -Hartree energ DENC   =     -2855.60785864
  -exchange      EXHF   =         0.00000000
  -V(xc)+E(xc)   XCENC  =      -996.21000395
  PAW double counting   =     12741.82587617   -11476.22345381
  entropy T*S    EENTRO =         0.02623031
  eigenvalues    EBANDS =      1587.59003991
  atomic energy  EATOM  =     12697.67401269
  ---------------------------------------------------
  free energy    TOTEN  =      -404.11595006 eV

  energy without entropy =     -404.14218037  energy(sigma->0) =     -404.12469350


--------------------------------------------------------------------------------------------------------




--------------------------------------- Iteration      1(   8)  ---------------------------------------


    TRIAL :  cpu time   86.1903: real time   86.7445
    CORREC:  cpu time    0.0160: real time    0.0169
    CHARGE:  cpu time    2.3670: real time    2.3671
    --------------------------------------------
      LOOP:  cpu time   88.5744: real time   89.1320

 eigenvalue-minimisations  : 57424
 total energy-change (2. order) :-0.3203327E-02  (-0.3185969E-02)
 number of electron     269.9999995 magnetization      15.2425481
 augmentation part       64.1869712 magnetization       8.7779105

 Free energy of the ion-electron system (eV)
  ---------------------------------------------------
  alpha Z        PSCENC =       798.38614055
  Ewald energy   TEWEN  =    -12901.57693327
  -Hartree energ DENC   =     -2855.60785864
  -exchange      EXHF   =         0.00000000
  -V(xc)+E(xc)   XCENC  =      -996.21000395
  PAW double counting   =     12741.82587617   -11476.22345381
  entropy T*S    EENTRO =         0.02628598
  eigenvalues    EBANDS =      1587.58678091
  atomic energy  EATOM  =     12697.67401269
  ---------------------------------------------------
  free energy    TOTEN  =      -404.11915339 eV

  energy without entropy =     -404.14543937  energy(sigma->0) =     -404.12791538


--------------------------------------------------------------------------------------------------------




--------------------------------------- Iteration      1(   9)  ---------------------------------------


    POTLOK:  cpu time    0.3987: real time    0.3989
    SETDIJ:  cpu time    0.4802: real time    0.4801
    TRIAL :  cpu time   30.2053: real time   31.2501
    CORREC:  cpu time    8.2608: real time    8.2852
    CHARGE:  cpu time    2.3640: real time    2.3643
    --------------------------------------------
      LOOP:  cpu time   41.7103: real time   42.7808

 eigenvalue-minimisations  :     0
 total energy-change (2. order) : 0.3002187E+03  (-0.2183507E+03)
 number of electron     269.9999993 magnetization      15.9199767
 augmentation part       82.6749297 magnetization      10.4555398

 Free energy of the ion-electron system (eV)
  ---------------------------------------------------
  alpha Z        PSCENC =       798.38614055
  Ewald energy   TEWEN  =    -12901.57693327
  -Hartree energ DENC   =     -1272.62513525
  -exchange      EXHF   =         0.00000000
  -V(xc)+E(xc)   XCENC  =     -1041.58533156
  PAW double counting   =     19168.22604194   -17748.81412849
  entropy T*S    EENTRO =         0.03310177
  eigenvalues    EBANDS =       196.38858499
  atomic energy  EATOM  =     12697.67401269
  ---------------------------------------------------
  free energy    TOTEN  =      -103.90046242 eV

  energy without entropy =     -103.93356419  energy(sigma->0) =     -103.91149634


--------------------------------------------------------------------------------------------------------




--------------------------------------- Iteration      1(  10)  ---------------------------------------


    POTLOK:  cpu time    0.3984: real time    0.3984
    SETDIJ:  cpu time    0.4672: real time    0.4673
    TRIAL :  cpu time   30.3387: real time   30.5747
    CORREC:  cpu time    8.8152: real time    8.9402
    CHARGE:  cpu time    2.4534: real time    2.4543
    --------------------------------------------
      LOOP:  cpu time   42.5211: real time   42.8845

 eigenvalue-minimisations  :     0
 total energy-change (2. order) :-0.2147374E+03  (-0.1230782E+02)
 number of electron     269.9999993 magnetization      16.2864369
 augmentation part       86.8660441 magnetization      11.0181068

 Free energy of the ion-electron system (eV)
  ---------------------------------------------------
  alpha Z        PSCENC =       798.38614055
  Ewald energy   TEWEN  =    -12901.57693327
  -Hartree energ DENC   =     -2116.41396816
  -exchange      EXHF   =         0.00000000
  -V(xc)+E(xc)   XCENC  =     -1011.97099375
  PAW double counting   =     20704.55850866   -19468.51511115
  entropy T*S    EENTRO =         0.02396635
  eigenvalues    EBANDS =       979.18740851
  atomic energy  EATOM  =     12697.67401269
  ---------------------------------------------------
  free energy    TOTEN  =      -318.63783415 eV

  energy without entropy =     -318.66180050  energy(sigma->0) =     -318.64582293


--------------------------------------------------------------------------------------------------------




--------------------------------------- Iteration      1(  11)  ---------------------------------------


    POTLOK:  cpu time    0.3929: real time    0.3928
    SETDIJ:  cpu time    0.4712: real time    0.4711
    TRIAL :  cpu time   30.4185: real time   30.6246
    CORREC:  cpu time    8.6864: real time    8.7302
    CHARGE:  cpu time    2.4863: real time    2.4898
    --------------------------------------------
      LOOP:  cpu time   42.4566: real time   42.7113

 eigenvalue-minimisations  :     0
 total energy-change (2. order) :-0.1192485E+02  (-0.1063117E+02)
 number of electron     269.9999992 magnetization      16.5636815
 augmentation part       88.9251894 magnetization      11.3608370

 Free energy of the ion-electron system (eV)
  ---------------------------------------------------
  alpha Z        PSCENC =       798.38614055
  Ewald energy   TEWEN  =    -12901.57693327
  -Hartree energ DENC   =     -2368.64696019
  -exchange      EXHF   =         0.00000000
  -V(xc)+E(xc)   XCENC  =     -1002.88783736
  PAW double counting   =     21663.44015242   -20468.39421999
  entropy T*S    EENTRO =         0.01054087
  eigenvalues    EBANDS =      1251.41899340
  atomic energy  EATOM  =     12697.67401269
  ---------------------------------------------------
  free energy    TOTEN  =      -330.56268539 eV

  energy without entropy =     -330.57322626  energy(sigma->0) =     -330.56619901


--------------------------------------------------------------------------------------------------------




--------------------------------------- Iteration      1(  12)  ---------------------------------------


    POTLOK:  cpu time    0.3936: real time    0.3937
    SETDIJ:  cpu time    0.4759: real time    0.4759
    TRIAL :  cpu time   30.2400: real time   30.4738
    CORREC:  cpu time    8.2581: real time    8.3814
    CHARGE:  cpu time    2.3621: real time    2.3624
    --------------------------------------------
      LOOP:  cpu time   41.7393: real time   42.0974

 eigenvalue-minimisations  :     0
 total energy-change (2. order) :-0.1069620E+02  (-0.1081909E+02)
 number of electron     269.9999993 magnetization      16.5222135
 augmentation part       87.1322348 magnetization      11.3631752

 Free energy of the ion-electron system (eV)
  ---------------------------------------------------
  alpha Z        PSCENC =       798.38614055
  Ewald energy   TEWEN  =    -12901.57693327
  -Hartree energ DENC   =     -2549.37358156
  -exchange      EXHF   =         0.00000000
  -V(xc)+E(xc)   XCENC  =      -996.84812556
  PAW double counting   =     21795.83490860   -20607.20188568
  entropy T*S    EENTRO =        -0.00851125
  eigenvalues    EBANDS =      1421.83603587
  atomic energy  EATOM  =     12697.67401269
  ---------------------------------------------------
  free energy    TOTEN  =      -341.25888748 eV

  energy without entropy =     -341.25037623  energy(sigma->0) =     -341.25605039


--------------------------------------------------------------------------------------------------------




--------------------------------------- Iteration      1(  13)  ---------------------------------------


    POTLOK:  cpu time    0.3947: real time    0.3946
    SETDIJ:  cpu time    0.4697: real time    0.4696
    TRIAL :  cpu time   30.1890: real time   31.1316
    CORREC:  cpu time    8.2851: real time    8.2979
    CHARGE:  cpu time    2.3776: real time    2.4004
    --------------------------------------------
      LOOP:  cpu time   41.7218: real time   42.7008

 eigenvalue-minimisations  :     0
 total energy-change (2. order) :-0.1081881E+02  (-0.1161493E+01)
 number of electron     269.9999993 magnetization      16.5482651
 augmentation part       86.4588660 magnetization      11.3671759

 Free energy of the ion-electron system (eV)
  ---------------------------------------------------
  alpha Z        PSCENC =       798.38614055
  Ewald energy   TEWEN  =    -12901.57693327
  -Hartree energ DENC   =     -2537.85627616
  -exchange      EXHF   =         0.00000000
  -V(xc)+E(xc)   XCENC  =      -998.11246959
  PAW double counting   =     21262.19347298   -20028.69969090
  entropy T*S    EENTRO =        -0.01457729
  eigenvalues    EBANDS =      1355.92255928
  atomic energy  EATOM  =     12697.67401269
  ---------------------------------------------------
  free energy    TOTEN  =      -352.07769567 eV

  energy without entropy =     -352.06311837  energy(sigma->0) =     -352.07283657


--------------------------------------------------------------------------------------------------------




--------------------------------------- Iteration      1(  14)  ---------------------------------------


    POTLOK:  cpu time    0.3949: real time    0.3950
    SETDIJ:  cpu time    0.4842: real time    0.4844
    TRIAL :  cpu time   30.1150: real time   30.3193
    CORREC:  cpu time    8.9305: real time    8.9672
    CHARGE:  cpu time    2.3647: real time    2.3651
    --------------------------------------------
      LOOP:  cpu time   42.2924: real time   42.5340

 eigenvalue-minimisations  :     0
 total energy-change (2. order) :-0.1070881E+01  (-0.1118735E+01)
 number of electron     269.9999993 magnetization      16.5296034
 augmentation part       85.8088131 magnetization      11.2472299

 Free energy of the ion-electron system (eV)
  ---------------------------------------------------
  alpha Z        PSCENC =       798.38614055
  Ewald energy   TEWEN  =    -12901.57693327
  -Hartree energ DENC   =     -2506.16451224
  -exchange      EXHF   =         0.00000000
  -V(xc)+E(xc)   XCENC  =      -999.28131312
  PAW double counting   =     21019.30249901   -19774.90771151
  entropy T*S    EENTRO =        -0.01832539
  eigenvalues    EBANDS =      1313.43381813
  atomic energy  EATOM  =     12697.67401269
  ---------------------------------------------------
  free energy    TOTEN  =      -353.14857705 eV

  energy without entropy =     -353.13025167  energy(sigma->0) =     -353.14246859


--------------------------------------------------------------------------------------------------------




--------------------------------------- Iteration      1(  15)  ---------------------------------------


    POTLOK:  cpu time    0.3941: real time    0.3942
    SETDIJ:  cpu time    0.4641: real time    0.4642
    TRIAL :  cpu time   30.2657: real time   30.5352
    CORREC:  cpu time    8.7807: real time    8.8538
    CHARGE:  cpu time    2.3419: real time    2.3422
    --------------------------------------------
      LOOP:  cpu time   42.2491: real time   42.5928

 eigenvalue-minimisations  :     0
 total energy-change (2. order) :-0.1118140E+01  (-0.8829176E+00)
 number of electron     269.9999992 magnetization      16.5934172
 augmentation part       86.5406072 magnetization      11.2658515

 Free energy of the ion-electron system (eV)
  ---------------------------------------------------
  alpha Z        PSCENC =       798.38614055
  Ewald energy   TEWEN  =    -12901.57693327
  -Hartree energ DENC   =     -2462.28345602
  -exchange      EXHF   =         0.00000000
  -V(xc)+E(xc)   XCENC  =     -1000.82294782
  PAW double counting   =     20336.27953309   -19079.74424652
  entropy T*S    EENTRO =        -0.02201795
  eigenvalues    EBANDS =      1257.83950588
  atomic energy  EATOM  =     12697.67401269
  ---------------------------------------------------
  free energy    TOTEN  =      -354.26671680 eV

  energy without entropy =     -354.24469886  energy(sigma->0) =     -354.25937749


--------------------------------------------------------------------------------------------------------




--------------------------------------- Iteration      1(  16)  ---------------------------------------


    POTLOK:  cpu time    0.3939: real time    0.3940
    SETDIJ:  cpu time    0.4735: real time    0.4737
    TRIAL :  cpu time   30.4172: real time   30.5862
    CORREC:  cpu time    8.2031: real time    8.2622
    CHARGE:  cpu time    2.3603: real time    2.3759
    --------------------------------------------
      LOOP:  cpu time   41.8550: real time   42.0991

 eigenvalue-minimisations  :     0
 total energy-change (2. order) :-0.8816072E+00  (-0.2835280E+00)
 number of electron     269.9999992 magnetization      16.5413294
 augmentation part       86.9770354 magnetization      11.2637267

 Free energy of the ion-electron system (eV)
  ---------------------------------------------------
  alpha Z        PSCENC =       798.38614055
  Ewald energy   TEWEN  =    -12901.57693327
  -Hartree energ DENC   =     -2486.58949955
  -exchange      EXHF   =         0.00000000
  -V(xc)+E(xc)   XCENC  =      -999.78611544
  PAW double counting   =     19816.99641697   -18565.07122750
  entropy T*S    EENTRO =        -0.02453721
  eigenvalues    EBANDS =      1284.84089950
  atomic energy  EATOM  =     12697.67401269
  ---------------------------------------------------
  free energy    TOTEN  =      -355.14832399 eV

  energy without entropy =     -355.12378678  energy(sigma->0) =     -355.14014492


--------------------------------------------------------------------------------------------------------




--------------------------------------- Iteration      1(  17)  ---------------------------------------


    POTLOK:  cpu time    0.3930: real time    0.3929
    SETDIJ:  cpu time    0.4580: real time    0.4579
    TRIAL :  cpu time   29.6757: real time   30.6144
    CORREC:  cpu time    8.2217: real time    8.2995
    CHARGE:  cpu time    2.9744: real time    2.9927
    --------------------------------------------
      LOOP:  cpu time   41.7272: real time   42.7627

 eigenvalue-minimisations  :     0
 total energy-change (2. order) :-0.2858424E+00  (-0.2175644E+00)
 number of electron     269.9999992 magnetization      16.4945298
 augmentation part       87.2495846 magnetization      11.3173931

 Free energy of the ion-electron system (eV)
  ---------------------------------------------------
  alpha Z        PSCENC =       798.38614055
  Ewald energy   TEWEN  =    -12901.57693327
  -Hartree energ DENC   =     -2504.10232061
  -exchange      EXHF   =         0.00000000
  -V(xc)+E(xc)   XCENC  =      -999.04274356
  PAW double counting   =     19676.36566408   -18428.38079473
  entropy T*S    EENTRO =        -0.02718986
  eigenvalues    EBANDS =      1305.26734572
  atomic energy  EATOM  =     12697.67401269
  ---------------------------------------------------
  free energy    TOTEN  =      -355.43416635 eV

  energy without entropy =     -355.40697649  energy(sigma->0) =     -355.42510306


--------------------------------------------------------------------------------------------------------




--------------------------------------- Iteration      1(  18)  ---------------------------------------


    POTLOK:  cpu time    0.3938: real time    0.3939
    SETDIJ:  cpu time    0.4851: real time    0.4860
    TRIAL :  cpu time   30.2588: real time   30.4535
    CORREC:  cpu time    8.1875: real time    8.2134
    CHARGE:  cpu time    2.3601: real time    2.3691
    --------------------------------------------
      LOOP:  cpu time   41.7105: real time   41.9423

 eigenvalue-minimisations  :     0
 total energy-change (2. order) :-0.2175453E+00  (-0.1964817E+00)
 number of electron     269.9999992 magnetization      16.4684883
 augmentation part       87.2075285 magnetization      11.3618735

 Free energy of the ion-electron system (eV)
  ---------------------------------------------------
  alpha Z        PSCENC =       798.38614055
  Ewald energy   TEWEN  =    -12901.57693327
  -Hartree energ DENC   =     -2514.13048940
  -exchange      EXHF   =         0.00000000
  -V(xc)+E(xc)   XCENC  =      -998.41927081
  PAW double counting   =     19587.90718146   -18342.82485375
  entropy T*S    EENTRO =        -0.02795149
  eigenvalues    EBANDS =      1317.35969073
  atomic energy  EATOM  =     12697.67401269
  ---------------------------------------------------
  free energy    TOTEN  =      -355.65171165 eV

  energy without entropy =     -355.62376016  energy(sigma->0) =     -355.64239449


--------------------------------------------------------------------------------------------------------




--------------------------------------- Iteration      1(  19)  ---------------------------------------


    POTLOK:  cpu time    0.4029: real time    0.4133
    SETDIJ:  cpu time    1.2288: real time    1.2330
    TRIAL :  cpu time   30.2048: real time   30.4230
    CORREC:  cpu time    8.1810: real time    8.2537
    CHARGE:  cpu time    2.3566: real time    2.3649
    --------------------------------------------
      LOOP:  cpu time   42.3760: real time   42.6903

 eigenvalue-minimisations  :     0
 total energy-change (2. order) :-0.1965539E+00  (-0.6438676E-01)
 number of electron     269.9999992 magnetization      16.4889508
 augmentation part       87.0292609 magnetization      11.3949575

 Free energy of the ion-electron system (eV)
  ---------------------------------------------------
  alpha Z        PSCENC =       798.38614055
  Ewald energy   TEWEN  =    -12901.57693327
  -Hartree energ DENC   =     -2508.61673988
  -exchange      EXHF   =         0.00000000
  -V(xc)+E(xc)   XCENC  =      -998.32863120
  PAW double counting   =     19516.18724255   -18270.74561267
  entropy T*S    EENTRO =        -0.02899469
  eigenvalues    EBANDS =      1311.20020721
  atomic energy  EATOM  =     12697.67401269
  ---------------------------------------------------
  free energy    TOTEN  =      -355.84826551 eV

  energy without entropy =     -355.81927083  energy(sigma->0) =     -355.83860062


--------------------------------------------------------------------------------------------------------




--------------------------------------- Iteration      1(  20)  ---------------------------------------


    POTLOK:  cpu time    0.3891: real time    0.4405
    SETDIJ:  cpu time    0.4495: real time    0.4495
    TRIAL :  cpu time   30.3761: real time   30.4864
    CORREC:  cpu time    9.0019: real time    9.0643
    CHARGE:  cpu time    2.3577: real time    2.3699
    --------------------------------------------
      LOOP:  cpu time   42.5769: real time   42.8148

 eigenvalue-minimisations  :     0
 total energy-change (2. order) :-0.6404443E-01  (-0.5088434E-01)
 number of electron     269.9999992 magnetization      16.4729917
 augmentation part       86.8389420 magnetization      11.4097330

 Free energy of the ion-electron system (eV)
  ---------------------------------------------------
  alpha Z        PSCENC =       798.38614055
  Ewald energy   TEWEN  =    -12901.57693327
  -Hartree energ DENC   =     -2498.99406559
  -exchange      EXHF   =         0.00000000
  -V(xc)+E(xc)   XCENC  =      -998.55249446
  PAW double counting   =     19490.38491575   -18243.14471236
  entropy T*S    EENTRO =        -0.02948328
[...]
   45       -0.020  -0.025  -2.328  -2.373
   46       -0.025  -0.015  -2.422  -2.463
   47        0.013   0.023   2.247   2.284
   48       -0.025  -0.023  -2.410  -2.458
   49        0.020   0.024   2.366   2.410
   50        0.018   0.023   2.375   2.415
   51       -0.020  -0.024  -2.291  -2.336
   52        0.024   0.017   2.392   2.433
   53        0.021   0.013   2.349   2.383
   54        0.031   0.027   2.337   2.395
--------------------------------------------------
tot         -0.015  -0.094  16.479  16.371
 
    FORLOC:  cpu time    0.0583: real time    0.0583
    FORNL :  cpu time   43.0565: real time   43.3622
    STRESS:  cpu time   58.2270: real time   58.6215
    FORCOR:  cpu time    0.4406: real time    0.4406
    OFIELD:  cpu time    0.0022: real time    0.0022

  FORCE on cell =-STRESS in cart. coord.  units (eV):
  Direction    XX          YY          ZZ          XY          YZ          ZX
  --------------------------------------------------------------------------------------
  Alpha Z   798.38614   798.38614   798.38614
  Ewald   -4053.61603 -4053.61603 -4794.40593    -0.00000    -0.00000    -0.00000
  Hartree  1084.09748  1083.32324   333.43357    -0.08120     0.15246     0.02164
  E(xc)   -1141.65093 -1141.44990 -1140.04404     0.03970    -0.03249    -0.00383
  Local     368.41970   370.78674  1903.40364     0.26202    -0.47196    -0.05711
  n-local  -169.13044  -168.80898  -175.50775     0.16356    -0.10747    -0.02791
  augment   784.73662   783.98829   768.35277    -0.13511     0.17470     0.01878
  Kinetic  2335.65434  2333.92222  2309.54083    -0.42299     0.42250     0.08030
  Fock        0.00000     0.00000     0.00000     0.00000     0.00000     0.00000
  -------------------------------------------------------------------------------------
  Total       6.89689     6.53174     3.15922    -0.17402     0.13773     0.03187
  in kB      15.56538    14.74127     7.12996    -0.39273     0.31084     0.07193
  external pressure =       12.48 kB  Pullay stress =        0.00 kB


 VOLUME and BASIS-vectors are now :
 -----------------------------------------------------------------------------
  energy-cutoff  :      404.80
  volume of cell :      709.91
      direct lattice vectors                 reciprocal lattice vectors
     8.250148166  0.000000000  0.000000000     0.121209944  0.000000000  0.000000000
     0.000000000  8.250148166  0.000000000     0.000000000  0.121209944  0.000000000
     0.000000000  0.000000000 10.429911392     0.000000000  0.000000000  0.095878092

  length of vectors
     8.250148166  8.250148166 10.429911392     0.121209944  0.121209944  0.095878092


 FORCES acting on ions:
    Electron-Ion                     Ewald-Force                    Non-Local-Force
 -----------------------------------------------------------------------------------------------
   0.771E-01 0.174E-01 -.216E-01   -.239E-08 -.239E-08 -.210E-08   -.862E-01 -.309E-02 0.161E-01
   0.563E-01 -.507E-02 0.141E-01   -.239E-08 -.239E-08 0.171E-08   0.520E-01 -.245E-01 0.184E-01
   0.137E+00 0.123E+00 -.276E-01   -.239E-08 -.239E-08 0.861E-08   -.926E-01 -.832E-01 -.153E-01
   0.103E+00 0.104E+00 -.134E+00   -.239E-08 -.802E-09 -.210E-08   -.607E-01 -.800E-01 0.412E-01
   0.694E-01 0.551E-01 0.339E-01   -.239E-08 -.802E-09 0.171E-08   0.173E-01 0.111E-01 0.123E-02
   -.100E-01 0.171E-01 0.823E-01   -.239E-08 -.802E-09 0.861E-08   -.403E-02 -.416E-02 -.290E-01
   0.102E+00 -.148E+00 0.391E-02   -.239E-08 0.631E-08 -.210E-08   -.866E-01 0.116E+00 0.599E-01
   -.108E-01 -.162E-01 0.909E-02   -.239E-08 0.631E-08 0.171E-08   0.205E-02 -.493E-02 -.529E-01
   0.130E+00 -.187E+00 0.396E-01   -.239E-08 0.631E-08 0.861E-08   -.102E+00 0.119E+00 -.496E-01
   -.147E+00 -.130E+00 -.126E+00   -.802E-09 -.239E-08 -.210E-08   0.691E-01 0.826E-01 0.404E-01
   -.629E-01 -.347E-01 0.514E-01   -.802E-09 -.239E-08 0.171E-08   -.249E-01 -.284E-01 -.451E-02
   -.373E-02 -.284E-02 0.516E-01   -.803E-09 -.239E-08 0.861E-08   0.102E-01 0.827E-02 -.195E-01
   -.127E+00 0.107E+00 -.148E+00   -.802E-09 -.802E-09 -.210E-08   0.682E-01 -.891E-01 0.163E-01
   -.646E-01 0.207E-01 0.198E-01   -.802E-09 -.802E-09 0.171E-08   -.217E-01 0.236E-01 0.140E-02
   -.103E-01 0.594E-02 0.850E-01   -.803E-09 -.802E-09 0.861E-08   0.120E-01 -.115E-01 0.261E-03
   0.256E-01 0.233E-01 -.650E-01   -.802E-09 0.631E-08 -.210E-08   -.160E-01 -.686E-02 0.664E-01
   0.132E-01 0.101E-01 0.856E-02   -.802E-09 0.631E-08 0.171E-08   0.869E-02 0.145E-02 -.563E-01
   -.329E-02 0.222E-02 0.123E+00   -.803E-09 0.631E-08 0.861E-08   0.221E-02 -.108E-02 -.700E-01
   0.787E-01 0.692E-01 0.187E-01   0.631E-08 -.239E-08 -.210E-08   0.837E-02 0.669E-01 -.128E-01
   0.154E-01 0.894E-01 -.647E-02   0.631E-08 -.239E-08 0.171E-08   -.343E-01 -.530E-01 0.653E-01
   -.129E+00 0.114E+00 -.748E-01   0.631E-08 -.239E-08 0.861E-08   0.817E-01 -.812E-01 0.437E-02
   0.224E-01 0.968E-01 -.671E-01   0.631E-08 -.802E-09 -.210E-08   0.184E-03 -.170E+00 -.115E-01
   -.565E-02 -.596E-01 0.357E-01   0.631E-08 -.802E-09 0.171E-08   0.122E-01 0.552E-01 0.382E-01
   0.119E-01 0.220E-01 -.234E-01   0.631E-08 -.802E-09 0.861E-08   -.744E-04 -.783E-02 0.192E-01
   -.118E+00 -.154E+00 0.254E-01   0.631E-08 0.631E-08 -.210E-08   0.817E-01 0.103E+00 0.196E-01
   -.534E-02 -.140E-01 -.269E-04   0.631E-08 0.631E-08 0.171E-08   -.780E-02 -.392E-02 -.272E-01
   -.123E+00 -.164E+00 0.772E-01   0.631E-08 0.631E-08 0.861E-08   0.854E-01 0.987E-01 -.560E-01
   -.996E-01 -.431E-01 0.133E+00   -.169E-07 -.169E-07 -.180E-07   0.109E+00 0.598E-01 -.777E-01
   -.292E-01 -.370E-01 -.786E-01   -.169E-07 -.169E-07 -.170E-08   0.282E-01 0.325E-01 0.109E+00
   -.910E-01 -.831E-01 -.254E+00   -.169E-07 -.169E-07 0.115E-07   0.115E+00 0.754E-01 0.317E+00
   -.468E-01 -.194E+00 0.318E-01   -.169E-07 0.802E-09 -.180E-07   0.366E-01 0.207E+00 -.115E+00
   -.438E-01 -.449E-01 0.750E-02   -.169E-07 0.802E-09 -.170E-08   0.307E-01 0.110E+00 0.867E-01
   -.110E+00 0.326E-01 0.273E-01   -.169E-07 0.802E-09 0.115E-07   0.108E+00 -.620E-01 -.266E-01
   0.687E-01 0.223E+00 0.259E-01   -.169E-07 0.130E-07 -.180E-07   -.430E-01 -.211E+00 -.611E-01
   0.678E-01 0.757E-01 -.498E-01   -.169E-07 0.130E-07 -.170E-08   -.527E-01 -.117E+00 0.922E-01
   0.281E+00 0.498E-01 0.899E-01   -.169E-07 0.130E-07 0.115E-07   -.160E+00 -.330E-01 -.114E+00
   0.563E+00 0.107E-01 -.203E+00   0.802E-09 -.169E-07 -.180E-07   -.260E+00 0.572E-02 0.172E+00
   0.109E+00 -.291E-01 0.188E+00   0.802E-09 -.169E-07 -.170E-08   -.417E-01 0.204E-01 -.155E+00
   0.106E+00 -.102E+00 0.189E+00   0.802E-09 -.169E-07 0.115E-07   -.152E+00 0.830E-01 -.344E+00
   0.502E-02 0.292E+00 0.602E-01   0.802E-09 0.802E-09 -.180E-07   -.292E-01 -.119E+00 -.806E-01
   0.588E-01 -.151E-01 -.350E-01   0.802E-09 0.802E-09 -.170E-08   -.740E-01 0.988E-02 0.106E+00
   0.134E+00 0.122E+00 -.109E+00   0.802E-09 0.802E-09 0.115E-07   -.101E+00 -.943E-01 0.104E+00
   -.967E-01 -.260E+00 0.997E-01   0.802E-09 0.130E-07 -.180E-07   0.581E-01 0.987E-01 -.118E+00
   -.583E-01 0.340E-01 -.103E+00   0.802E-09 0.130E-07 -.170E-08   0.100E-01 -.243E-01 0.120E+00
   -.266E+00 -.377E-01 -.799E-01   0.802E-09 0.130E-07 0.115E-07   0.167E+00 0.546E-02 0.885E-01
   -.514E+00 -.733E-01 -.358E+00   0.130E-07 -.169E-07 -.180E-07   0.210E+00 0.358E-01 0.395E+00
   -.860E-01 0.632E-01 0.636E-01   0.130E-07 -.169E-07 -.170E-08   0.249E-01 -.524E-01 -.450E-01
   -.478E-02 0.351E+00 0.277E+00   0.130E-07 -.169E-07 0.115E-07   0.321E-01 -.207E+00 -.363E+00
   0.369E-01 0.186E+00 0.117E+00   0.130E-07 0.802E-09 -.180E-07   -.204E-01 -.598E-01 -.171E+00
   -.994E-02 -.993E-01 -.109E+00   0.130E-07 0.802E-09 -.170E-08   0.338E-01 0.524E-01 0.160E+00
   -.187E-01 -.280E+00 -.144E+00   0.130E-07 0.802E-09 0.115E-07   -.504E-02 0.152E+00 0.146E+00
   0.317E-01 -.236E+00 -.178E+00   0.130E-07 0.130E-07 -.180E-07   -.231E-01 0.839E-01 0.196E+00
   -.820E-02 0.459E-01 0.161E+00   0.130E-07 0.130E-07 -.170E-08   0.306E-01 -.179E-01 -.135E+00
   0.264E-01 0.444E-01 0.365E-01   0.130E-07 0.130E-07 0.115E-07   -.352E-01 -.188E-01 -.708E-01
 -----------------------------------------------------------------------------------------------
   0.306E-01 -.479E-01 -.218E+00   -.614E-13 -.142E-13 0.128E-13   -.306E-01 0.479E-01 0.218E+00
 
 
 POSITION                                       TOTAL-FORCE (eV/Angst)
 -----------------------------------------------------------------------------------
      0.00000      0.00000      0.00000        -0.002122      0.014768     -0.007041
      0.00000      0.00000      3.47664         0.104010     -0.026583      0.029605
      0.00000      0.00000      6.95327         0.052516      0.047010     -0.040393
      0.00000      2.75005      0.00000         0.047194      0.030877     -0.096259
      0.00000      2.75005      3.47664         0.084705      0.065106      0.034103
      0.00000      2.75005      6.95327        -0.014196      0.013201      0.056462
      0.00000      5.50010      0.00000         0.022089     -0.042091      0.058017
      0.00000      5.50010      3.47664        -0.008950     -0.021040     -0.039601
      0.00000      5.50010      6.95327         0.036456     -0.078346     -0.004524
      2.75005      0.00000      0.00000        -0.084219     -0.055216     -0.088653
      2.75005      0.00000      3.47664        -0.085377     -0.060721      0.046202
      2.75005      0.00000      6.95327         0.005575      0.004358      0.034339
      2.75005      2.75005      0.00000        -0.064883      0.025074     -0.132475
      2.75005      2.75005      3.47664        -0.084135      0.041754      0.019625
      2.75005      2.75005      6.95327         0.000598     -0.004691      0.085893
      2.75005      5.50010      0.00000         0.011353      0.017482     -0.004358
      2.75005      5.50010      3.47664         0.021504      0.011804     -0.043236
      2.75005      5.50010      6.95327        -0.001231      0.001669      0.059947
      5.50010      0.00000      0.00000         0.086841      0.130856      0.007349
      5.50010      0.00000      3.47664        -0.016372      0.041987      0.051575
      5.50010      0.00000      6.95327        -0.054644      0.039173     -0.070369
      5.50010      2.75005      0.00000         0.022987     -0.059012     -0.076620
      5.50010      2.75005      3.47664         0.005812     -0.009582      0.069284
      5.50010      2.75005      6.95327         0.012354      0.014780     -0.006261
      5.50010      5.50010      0.00000        -0.042947     -0.058969      0.043145
      5.50010      5.50010      3.47664        -0.012839     -0.017917     -0.025361
      5.50010      5.50010      6.95327        -0.044990     -0.073687      0.028120
      1.37502      1.37502      1.73832         0.008467      0.015531      0.057568
      1.37502      1.37502      5.21496        -0.001372     -0.004833      0.023912
      1.37502      1.37502      8.69159         0.022034     -0.009761      0.056564
      1.37502      4.12507      1.73832        -0.010771      0.010091     -0.074830
      1.37502      4.12507      5.21496        -0.013643      0.064181      0.086251
      1.37502      4.12507      8.69159        -0.004125     -0.028105      0.003679
      1.37502      6.87512      1.73832         0.026960      0.014422     -0.027442
      1.37502      6.87512      5.21496         0.016133     -0.040847      0.034487
      1.37502      6.87512      8.69159         0.119832      0.017795     -0.020286
      4.12507      1.37502      1.73832         0.311396      0.017313     -0.035197
      4.12507      1.37502      5.21496         0.067495     -0.009375      0.034805
      4.12507      1.37502      8.69159        -0.041449     -0.021220     -0.145562
      4.12507      4.12507      1.73832        -0.023803      0.176564     -0.015665
      4.12507      4.12507      5.21496        -0.014342     -0.002908      0.062937
      4.12507      4.12507      8.69159         0.034991      0.029544     -0.006007
      4.12507      6.87512      1.73832        -0.040111     -0.164387     -0.013282
      4.12507      6.87512      5.21496        -0.048699      0.007381      0.008721
      4.12507      6.87512      8.69159        -0.097497     -0.031664      0.007975
      6.87512      1.37502      1.73832        -0.313731     -0.038010      0.029419
      6.87512      1.37502      5.21496        -0.061047      0.012475      0.018161
      6.87512      1.37502      8.69159         0.025813      0.145872     -0.079829
      6.87512      4.12507      1.73832         0.016845      0.127227     -0.045965
      6.87512      4.12507      5.21496         0.023904     -0.045331      0.041261
      6.87512      4.12507      8.69159        -0.024248     -0.127775     -0.000507
      6.87512      6.87512      1.73832         0.008809     -0.158495      0.020609
      6.87512      6.87512      5.21496         0.022208      0.025074      0.023766
      6.87512      6.87512      8.69159        -0.007139      0.027196     -0.034059
 -----------------------------------------------------------------------------------
    total drift:                               -0.000005     -0.000000     -0.000072


--------------------------------------------------------------------------------------------------------



  FREE ENERGIE OF THE ION-ELECTRON SYSTEM (eV)
  ---------------------------------------------------
  free  energy   TOTEN  =      -356.13066284 eV

  energy  without entropy=     -356.10210176  energy(sigma->0) =     -356.12114248
 


--------------------------------------------------------------------------------------------------------


    POTLOK:  cpu time    1.7105: real time    1.7104


--------------------------------------------------------------------------------------------------------


     LOOP+:  cpu time 3192.5363: real time 3225.3321
    4ORBIT:  cpu time    0.0000: real time    0.0000
 


 total charge     
 
# of ion       s       p       d       tot
------------------------------------------
    1        0.405   0.429   0.000   0.834
    2        0.405   0.429   0.000   0.834
    3        0.405   0.428   0.000   0.834
    4        0.405   0.427   0.000   0.833
    5        0.404   0.430   0.000   0.834
    6        0.405   0.426   0.000   0.831
    7        0.405   0.427   0.000   0.833
    8        0.404   0.428   0.000   0.832
    9        0.405   0.428   0.000   0.834
   10        0.405   0.427   0.000   0.833
   11        0.404   0.430   0.000   0.834
   12        0.405   0.426   0.000   0.831
   13        0.405   0.428   0.000   0.833
   14        0.405   0.430   0.000   0.834
   15        0.405   0.427   0.000   0.832
   16        0.405   0.425   0.000   0.831
   17        0.404   0.428   0.000   0.832
   18        0.405   0.427   0.000   0.832
   19        0.405   0.429   0.000   0.834
   20        0.405   0.429   0.000   0.834
   21        0.405   0.428   0.000   0.834
   22        0.405   0.428   0.000   0.833
   23        0.405   0.429   0.000   0.834
   24        0.405   0.426   0.000   0.831
   25        0.405   0.427   0.000   0.833
   26        0.405   0.427   0.000   0.831
   27        0.405   0.428   0.000   0.833
   28        0.332   0.358   5.131   5.821
   29        0.334   0.348   5.140   5.822
   30        0.334   0.354   5.132   5.819
   31        0.331   0.352   5.140   5.823
   32        0.335   0.351   5.136   5.821
   33        0.334   0.351   5.138   5.823
   34        0.331   0.354   5.137   5.821
   35        0.334   0.353   5.132   5.819
   36        0.336   0.354   5.129   5.818
   37        0.335   0.355   5.127   5.817
   38        0.331   0.352   5.137   5.820
   39        0.334   0.350   5.138   5.823
   40        0.333   0.354   5.131   5.818
   41        0.333   0.350   5.139   5.822
   42        0.333   0.353   5.136   5.821
   43        0.333   0.355   5.129   5.818
   44        0.333   0.352   5.134   5.819
   45        0.335   0.355   5.128   5.818
   46        0.334   0.354   5.130   5.819
   47        0.331   0.354   5.132   5.818
   48        0.335   0.354   5.127   5.817
   49        0.333   0.356   5.128   5.817
   50        0.333   0.352   5.133   5.818
   51        0.334   0.355   5.129   5.819
   52        0.334   0.353   5.134   5.820
   53        0.334   0.347   5.145   5.825
   54        0.338   0.357   5.120   5.815
--------------------------------------------------
tot         19.942  21.085 138.592 179.619
 


 magnetization (x)
 
# of ion       s       p       d       tot
------------------------------------------
    1        0.001   0.002   0.000   0.003
    2       -0.016  -0.030   0.000  -0.046
    3       -0.004  -0.008   0.000  -0.012
    4        0.004   0.008   0.000   0.012
    5       -0.017  -0.028   0.000  -0.045
    6       -0.001  -0.001   0.000  -0.002
    7       -0.004  -0.006   0.000  -0.010
    8       -0.022  -0.038   0.000  -0.060
    9       -0.004  -0.007   0.000  -0.011
   10        0.004   0.008   0.000   0.012
   11       -0.017  -0.028   0.000  -0.044
   12       -0.001  -0.002   0.000  -0.003
   13        0.006   0.010   0.000   0.016
   14       -0.016  -0.030   0.000  -0.046
   15        0.001   0.001   0.000   0.001
   16       -0.001   0.000   0.000  -0.000
   17       -0.022  -0.036   0.000  -0.058
   18       -0.001  -0.001   0.000  -0.002
   19        0.005   0.012   0.000   0.017
   20       -0.012  -0.022   0.000  -0.033
   21       -0.004  -0.006   0.000  -0.011
   22        0.009   0.017   0.000   0.026
   23       -0.012  -0.019   0.000  -0.032
   24       -0.001  -0.000   0.000  -0.001
   25       -0.002  -0.003   0.000  -0.006
   26       -0.020  -0.036   0.000  -0.056
   27       -0.004  -0.009   0.000  -0.013
   28        0.030   0.031   2.255   2.316
   29        0.021   0.013   2.395   2.429
   30       -0.010  -0.017  -2.257  -2.284
   31        0.011   0.008   2.324   2.342
   32        0.017   0.021   2.371   2.409
   33       -0.013  -0.009  -2.257  -2.279
   34        0.009   0.012   2.312   2.334
   35        0.015   0.026   2.350   2.392
   36       -0.023  -0.021  -2.357  -2.401
   37       -0.023  -0.020  -2.388  -2.431
   38        0.014   0.018   2.242   2.274
   39       -0.015  -0.011  -2.341  -2.368
   40        0.021   0.020   2.387   2.428
   41        0.019   0.017   2.365   2.401
   42       -0.011  -0.013  -2.250  -2.275
   43        0.020   0.023   2.357   2.399
   44        0.017   0.022   2.359   2.398
   45       -0.020  -0.025  -2.328  -2.373
   46       -0.025  -0.015  -2.422  -2.463
   47        0.013   0.023   2.247   2.284
   48       -0.025  -0.023  -2.410  -2.458
   49        0.020   0.024   2.366   2.410
   50        0.018   0.023   2.375   2.415
   51       -0.020  -0.024  -2.291  -2.336
   52        0.024   0.017   2.392   2.433
   53        0.021   0.013   2.349   2.383
   54        0.031   0.027   2.337   2.395
--------------------------------------------------
tot         -0.015  -0.094  16.479  16.371
 

 total amount of memory used by VASP MPI-rank0  1622301. kBytes
=======================================================================

   base      :      30000. kBytes
   nonl-proj :      51477. kBytes
   fftplans  :      31580. kBytes
   grid      :      21385. kBytes
   one-center:        435. kBytes
   wavefun   :    1487424. kBytes
 
  
  
 General timing and accounting informations for this job:
 ========================================================
  
                  Total CPU time used (sec):     3252.201
                            User time (sec):     3213.861
                          System time (sec):       38.339
                         Elapsed time (sec):     3288.187
  
                   Maximum memory used (kb):     1838124.
                   Average memory used (kb):           0.
  
                          Minor page faults:       871467
                          Major page faults:           16
                 Voluntary context switches:         3480
