 vasp.5.4.4.18Apr17-6-g9f103f2a35 (build Dec 20 2018 12:05:58) complex          
  
 executed on             LinuxIFC date 2019.06.21  01:30:34
 running on   32 total cores
 distrk:  each k-point on    8 cores,    4 groups
 distr:  one band on NCORES_PER_BAND=   4 cores,    2 groups


--------------------------------------------------------------------------------------------------------


 INCAR:
 POTCAR:    PAW_PBE Al 04Jan2001                  
 POTCAR:    PAW_PBE Mn 06Sep2000                  

 ----------------------------------------------------------------------------- 
|                                                                             |
|           W    W    AA    RRRRR   N    N  II  N    N   GGGG   !!!           |
|           W    W   A  A   R    R  NN   N  II  NN   N  G    G  !!!           |
|           W    W  A    A  R    R  N N  N  II  N N  N  G       !!!           |
|           W WW W  AAAAAA  RRRRR   N  N N  II  N  N N  G  GGG   !            |
|           WW  WW  A    A  R   R   N   NN  II  N   NN  G    G                |
|           W    W  A    A  R    R  N    N  II  N    N   GGGG   !!!           |
|                                                                             |
|      You have enabled k-point parallelism (KPAR>1).                         |
|      This developmental code was originally  written by Paul Kent at ORNL,  |
|      and carefully double checked in Vienna.                                |
|      GW as well as linear response parallelism added by Martijn Marsman     |
|      and Georg Kresse.                                                      |
|      Carefully verify results versus KPAR=1.                                |
|      Report problems to Paul Kent and Vienna.                               |
|                                                                             |
 ----------------------------------------------------------------------------- 

 POTCAR:    PAW_PBE Al 04Jan2001                  
   VRHFIN =Al: s2p1                                                             
   LEXCH  = PE                                                                  
   EATOM  =    53.5387 eV,    3.9350 Ry                                         
                                                                                
   TITEL  = PAW_PBE Al 04Jan2001                                                
   LULTRA =        F    use ultrasoft PP ?                                      
   IUNSCR =        1    unscreen: 0-lin 1-nonlin 2-no                           
   RPACOR =    1.500    partial core radius                                     
   POMASS =   26.981; ZVAL   =    3.000    mass and valenz                      
   RCORE  =    1.900    outmost cutoff radius                                   
   RWIGS  =    2.650; RWIGS  =    1.402    wigner-seitz radius (au A)           
   ENMAX  =  240.300; ENMIN  =  180.225 eV                                      
   ICORE  =        2    local potential                                         
   LCOR   =        T    correct aug charges                                     
   LPAW   =        T    paw PP                                                  
   EAUG   =  291.052                                                            
   DEXC   =    0.000                                                            
   RMAX   =    1.939    core radius for proj-oper                               
   RAUG   =    1.300    factor for augmentation sphere                          
   RDEP   =    1.966    radius for radial grids                                 
   RDEPT  =    1.856    core radius for aug-charge                              
                                                                                
   Atomic configuration                                                         
    6 entries                                                                   
     n  l   j            E        occ.                                          
     1  0  0.50     -1511.1048   2.0000                                         
     2  0  0.50      -108.1629   2.0000                                         
     2  1  1.50       -69.6402   6.0000                                         
     3  0  0.50        -7.7528   2.0000                                         
     3  1  1.50        -2.7121   1.0000                                         
     3  2  2.50        -2.7212   0.0000                                         
   Description                                                                  
     l       E           TYP  RCUT    TYP  RCUT                                 
     0     -7.7528455     23  1.900                                             
     0     -3.3096929     23  1.900                                             
     1     -2.7120682     23  1.900                                             
     1     13.6058260     23  1.900                                             
     2     -2.7211652      7  1.900                                             
  local pseudopotential read in
  partial core-charges read in
  partial kinetic energy density read in
  atomic valenz-charges read in
  non local Contribution for L=           0  read in
    real space projection operators read in
  non local Contribution for L=           0  read in
    real space projection operators read in
  non local Contribution for L=           1  read in
    real space projection operators read in
  non local Contribution for L=           1  read in
    real space projection operators read in
    PAW grid and wavefunctions read in
 
   number of l-projection  operators is LMAX  =           4
   number of lm-projection operators is LMMAX =           8
 
 POTCAR:    PAW_PBE Mn 06Sep2000                  
   VRHFIN =Mn: d6 s1                                                            
   LEXCH  = PE                                                                  
   EATOM  =   416.7541 eV,   30.6306 Ry                                         
                                                                                
   TITEL  = PAW_PBE Mn 06Sep2000                                                
   LULTRA =        F    use ultrasoft PP ?                                      
   IUNSCR =        1    unscreen: 0-lin 1-nonlin 2-no                           
   RPACOR =    2.000    partial core radius                                     
   POMASS =   54.938; ZVAL   =    7.000    mass and valenz                      
   RCORE  =    2.300    outmost cutoff radius                                   
   RWIGS  =    2.500; RWIGS  =    1.323    wigner-seitz radius (au A)           
   ENMAX  =  269.864; ENMIN  =  202.398 eV                                      
   RCLOC  =    1.725    cutoff for local pot                                    
   LCOR   =        T    correct aug charges                                     
   LPAW   =        T    paw PP                                                  
   EAUG   =  500.711                                                            
   DEXC   =    0.000                                                            
   RMAX   =    2.343    core radius for proj-oper                               
   RAUG   =    1.300    factor for augmentation sphere                          
   RDEP   =    2.338    radius for radial grids                                 
   RDEPT  =    1.911    core radius for aug-charge                              
                                                                                
   Atomic configuration                                                         
    9 entries                                                                   
     n  l   j            E        occ.                                          
     1  0  0.50     -6424.8288   2.0000                                         
     2  0  0.50      -739.1154   2.0000                                         
     2  1  1.50      -625.3949   6.0000                                         
     3  0  0.50       -81.6100   2.0000                                         
     3  1  1.50       -50.4667   6.0000                                         
     3  2  2.50        -3.3745   6.0000                                         
     4  0  0.50        -4.1331   1.0000                                         
     4  1  0.50        -4.0817   0.0000                                         
     4  3  2.50        -1.3606   0.0000                                         
   Description                                                                  
     l       E           TYP  RCUT    TYP  RCUT                                 
     2     -3.3744664     23  2.300                                             
     2     -4.7350490     23  2.300                                             
     0     -4.1331408     23  2.300                                             
     0      7.6656614     23  2.300                                             
     1     -2.7211652     23  2.300                                             
     1     20.4087390     23  2.300                                             
  local pseudopotential read in
  partial core-charges read in
  partial kinetic energy density read in
  atomic valenz-charges read in
  non local Contribution for L=           2  read in
    real space projection operators read in
  non local Contribution for L=           2  read in
    real space projection operators read in
  non local Contribution for L=           0  read in
    real space projection operators read in
  non local Contribution for L=           0  read in
    real space projection operators read in
  non local Contribution for L=           1  read in
    real space projection operators read in
  non local Contribution for L=           1  read in
    real space projection operators read in
    PAW grid and wavefunctions read in
 
   number of l-projection  operators is LMAX  =           6
   number of lm-projection operators is LMMAX =          18
 

 ----------------------------------------------------------------------------- 
|                                                                             |
|  ADVICE TO THIS USER RUNNING 'VASP/VAMP'   (HEAR YOUR MASTER'S VOICE ...):  |
|                                                                             |
|      You have a (more or less) 'large supercell' and for larger cells       |
|      it might be more efficient to use real space projection opertators     |
|      So try LREAL= Auto  in the INCAR   file.                               |
|      Mind:          For very  accurate calculation you might also keep the  |
|      reciprocal projection scheme          (i.e. LREAL=.FALSE.)             |
|                                                                             |
 ----------------------------------------------------------------------------- 

  PAW_PBE Al 04Jan2001                  :
 energy of atom  1       EATOM=  -53.5387
 kinetic energy error for atom=    0.0005 (will be added to EATOM!!)
  PAW_PBE Mn 06Sep2000                  :
 energy of atom  2       EATOM= -416.7541
 kinetic energy error for atom=    0.0080 (will be added to EATOM!!)
 
 
 POSCAR: NewRef: 27, @ ['Mn', array([1.37502469, 
  positions in cartesian coordinates
  velocities in cartesian coordinates
  No initial velocities read in
 exchange correlation table for  LEXCH =        8
   RHO(1)=    0.500       N(1)  =     2000
   RHO(2)=  100.500       N(2)  =     4000
 


--------------------------------------------------------------------------------------------------------


 ion  position               nearest neighbor table
   1  0.000  0.000  0.000-  28 2.61  30 2.61  34 2.61  36 2.61  46 2.61  48 2.61  52 2.61  54 2.61
                             4 2.75  10 2.75   7 2.75  19 2.75
   2  0.000  0.000  0.333-  28 2.61  34 2.61  46 2.61  52 2.61  29 2.61  47 2.61  35 2.61  53 2.61
                             5 2.75  11 2.75   8 2.75  20 2.75
   3  0.000  0.000  0.667-  29 2.61  35 2.61  47 2.61  53 2.61  30 2.61  48 2.61  36 2.61  54 2.61
                             6 2.75  12 2.75   9 2.75  21 2.75
   4  0.000  0.333  0.000-  28 2.61  30 2.61  46 2.61  48 2.61  31 2.61  33 2.61  49 2.61  51 2.61
                            13 2.75   1 2.75   7 2.75  22 2.75
   5  0.000  0.333  0.333-  28 2.61  46 2.61  31 2.61  49 2.61  47 2.61  29 2.61  32 2.61  50 2.61
                            14 2.75   2 2.75   8 2.75  23 2.75
   6  0.000  0.333  0.667-  29 2.61  47 2.61  32 2.61  50 2.61  48 2.61  30 2.61  33 2.61  51 2.61
                            15 2.75   3 2.75   9 2.75  24 2.75
   7  0.000  0.667  0.000-  31 2.61  33 2.61  49 2.61  51 2.61  34 2.61  36 2.61  52 2.61  54 2.61
                             4 2.75  16 2.75   1 2.75  25 2.75
   8  0.000  0.667  0.333-  31 2.61  49 2.61  34 2.61  52 2.61  50 2.61  32 2.61  35 2.61  53 2.61
                             5 2.75  17 2.75   2 2.75  26 2.75
   9  0.000  0.667  0.667-  32 2.61  50 2.61  35 2.61  53 2.61  51 2.61  33 2.61  36 2.61  54 2.61
                             6 2.75  18 2.75   3 2.75  27 2.75
  10  0.333  0.000  0.000-  28 2.61  30 2.61  34 2.61  36 2.61  37 2.61  39 2.61  43 2.61  45 2.61
                            19 2.75   1 2.75  13 2.75  16 2.75
  11  0.333  0.000  0.333-  28 2.61  34 2.61  37 2.61  43 2.61  29 2.61  35 2.61  38 2.61  44 2.61
                            20 2.75   2 2.75  14 2.75  17 2.75
  12  0.333  0.000  0.667-  29 2.61  35 2.61  38 2.61  44 2.61  30 2.61  36 2.61  39 2.61  45 2.61
                            21 2.75   3 2.75  15 2.75  18 2.75
  13  0.333  0.333  0.000-  28 2.61  30 2.61  31 2.61  33 2.61  37 2.61  39 2.61  40 2.61  42 2.61
                             4 2.75  10 2.75  16 2.75  22 2.75
  14  0.333  0.333  0.333-  28 2.61  31 2.61  37 2.61  29 2.61  40 2.61  38 2.61  32 2.61  41 2.61
                             5 2.75  11 2.75  17 2.75  23 2.75
  15  0.333  0.333  0.667-  29 2.61  32 2.61  38 2.61  30 2.61  41 2.61  39 2.61  33 2.61  42 2.61
                             6 2.75  12 2.75  18 2.75  24 2.75
  16  0.333  0.667  0.000-  31 2.61  33 2.61  34 2.61  36 2.61  40 2.61  42 2.61  43 2.61  45 2.61
                            25 2.75   7 2.75  13 2.75  10 2.75
  17  0.333  0.667  0.333-  31 2.61  34 2.61  40 2.61  32 2.61  43 2.61  41 2.61  35 2.61  44 2.61
                            26 2.75   8 2.75  14 2.75  11 2.75
  18  0.333  0.667  0.667-  32 2.61  35 2.61  41 2.61  33 2.61  44 2.61  42 2.61  36 2.61  45 2.61
                            27 2.75   9 2.75  15 2.75  12 2.75
  19  0.667  0.000  0.000-  37 2.61  39 2.61  43 2.61  45 2.61  46 2.61  48 2.61  52 2.61  54 2.61
                            10 2.75  22 2.75   1 2.75  25 2.75
  20  0.667  0.000  0.333-  37 2.61  43 2.61  46 2.61  52 2.61  38 2.61  44 2.61  47 2.61  53 2.61
                            11 2.75  23 2.75   2 2.75  26 2.75
  21  0.667  0.000  0.667-  38 2.61  44 2.61  47 2.61  53 2.61  39 2.61  45 2.61  48 2.61  54 2.61
                            12 2.75  24 2.75   3 2.75  27 2.75
  22  0.667  0.333  0.000-  37 2.61  39 2.61  40 2.61  42 2.61  46 2.61  48 2.61  49 2.61  51 2.61
                            25 2.75  13 2.75  19 2.75   4 2.75
  23  0.667  0.333  0.333-  37 2.61  40 2.61  46 2.61  38 2.61  49 2.61  47 2.61  41 2.61  50 2.61
                            26 2.75  14 2.75  20 2.75   5 2.75
  24  0.667  0.333  0.667-  38 2.61  41 2.61  47 2.61  39 2.61  50 2.61  48 2.61  42 2.61  51 2.61
                            27 2.75  15 2.75  21 2.75   6 2.75
  25  0.667  0.667  0.000-  40 2.61  42 2.61  43 2.61  45 2.61  49 2.61  51 2.61  52 2.61  54 2.61
                            16 2.75  22 2.75  19 2.75   7 2.75
  26  0.667  0.667  0.333-  40 2.61  43 2.61  49 2.61  41 2.61  52 2.61  50 2.61  44 2.61  53 2.61
                            17 2.75  23 2.75  20 2.75   8 2.75
  27  0.667  0.667  0.667-  41 2.61  44 2.61  50 2.61  42 2.61  53 2.61  51 2.61  45 2.61  54 2.61
                            18 2.75  24 2.75  21 2.75   9 2.75
  28  0.167  0.167  0.167-  14 2.61  11 2.61   5 2.61  13 2.61   2 2.61  10 2.61   4 2.61   1 2.61
                            31 2.75  37 2.75  34 2.75  46 2.75
  29  0.167  0.167  0.500-  15 2.61  12 2.61   6 2.61  14 2.61   3 2.61  11 2.61   5 2.61   2 2.61
                            32 2.75  38 2.75  35 2.75  47 2.75
  30  0.167  0.167  0.833-  13 2.61  15 2.61  10 2.61  12 2.61   4 2.61   6 2.61   1 2.61   3 2.61
                            33 2.75  39 2.75  36 2.75  48 2.75
  31  0.167  0.500  0.167-  17 2.61  14 2.61   8 2.61  16 2.61   5 2.61  13 2.61   7 2.61   4 2.61
                            28 2.75  34 2.75  40 2.75  49 2.75
  32  0.167  0.500  0.500-  18 2.61  15 2.61   9 2.61  17 2.61   6 2.61  14 2.61   8 2.61   5 2.61
                            29 2.75  35 2.75  41 2.75  50 2.75
  33  0.167  0.500  0.833-  16 2.61  18 2.61  13 2.61  15 2.61   7 2.61   9 2.61   4 2.61   6 2.61
                            30 2.75  36 2.75  42 2.75  51 2.75
  34  0.167  0.833  0.167-  11 2.61  17 2.61   2 2.61   8 2.61  16 2.61  10 2.61   7 2.61   1 2.61
                            31 2.75  43 2.75  28 2.75  52 2.75
  35  0.167  0.833  0.500-  12 2.61  18 2.61   3 2.61   9 2.61  17 2.61  11 2.61   8 2.61   2 2.61
                            32 2.75  44 2.75  29 2.75  53 2.75
  36  0.167  0.833  0.833-  10 2.61  12 2.61  16 2.61  18 2.61   1 2.61   3 2.61   7 2.61   9 2.61
                            33 2.75  45 2.75  30 2.75  54 2.75
  37  0.500  0.167  0.167-  23 2.61  20 2.61  14 2.61  22 2.61  11 2.61  19 2.61  13 2.61  10 2.61
                            28 2.75  40 2.75  46 2.75  43 2.75
  38  0.500  0.167  0.500-  24 2.61  21 2.61  15 2.61  23 2.61  12 2.61  20 2.61  14 2.61  11 2.61
                            29 2.75  41 2.75  47 2.75  44 2.75
  39  0.500  0.167  0.833-  22 2.61  24 2.61  19 2.61  21 2.61  13 2.61  15 2.61  10 2.61  12 2.61
                            30 2.75  42 2.75  48 2.75  45 2.75
  40  0.500  0.500  0.167-  26 2.61  23 2.61  17 2.61  25 2.61  14 2.61  22 2.61  16 2.61  13 2.61
                            31 2.75  37 2.75  43 2.75  49 2.75
  41  0.500  0.500  0.500-  27 2.61  24 2.61  18 2.61  26 2.61  15 2.61  23 2.61  17 2.61  14 2.61
                            32 2.75  38 2.75  44 2.75  50 2.75
  42  0.500  0.500  0.833-  25 2.61  27 2.61  22 2.61  24 2.61  16 2.61  18 2.61  13 2.61  15 2.61
                            33 2.75  39 2.75  45 2.75  51 2.75
  43  0.500  0.833  0.167-  20 2.61  26 2.61  11 2.61  17 2.61  25 2.61  19 2.61  16 2.61  10 2.61
                            34 2.75  40 2.75  52 2.75  37 2.75
  44  0.500  0.833  0.500-  21 2.61  27 2.61  12 2.61  18 2.61  26 2.61  20 2.61  17 2.61  11 2.61
                            35 2.75  41 2.75  53 2.75  38 2.75
  45  0.500  0.833  0.833-  19 2.61  21 2.61  25 2.61  27 2.61  10 2.61  12 2.61  16 2.61  18 2.61
                            36 2.75  42 2.75  54 2.75  39 2.75
  46  0.833  0.167  0.167-   5 2.61  23 2.61  20 2.61   2 2.61  22 2.61   4 2.61  19 2.61   1 2.61
                            37 2.75  49 2.75  28 2.75  52 2.75
  47  0.833  0.167  0.500-   6 2.61  24 2.61  21 2.61   3 2.61  23 2.61   5 2.61  20 2.61   2 2.61
                            38 2.75  50 2.75  29 2.75  53 2.75
  48  0.833  0.167  0.833-   4 2.61   6 2.61  22 2.61  24 2.61  19 2.61  21 2.61   1 2.61   3 2.61
                            39 2.75  51 2.75  30 2.75  54 2.75
  49  0.833  0.500  0.167-   8 2.61  26 2.61  23 2.61   5 2.61  25 2.61   7 2.61  22 2.61   4 2.61
                            40 2.75  46 2.75  52 2.75  31 2.75
  50  0.833  0.500  0.500-   9 2.61  27 2.61  24 2.61   6 2.61  26 2.61   8 2.61  23 2.61   5 2.61
                            41 2.75  47 2.75  53 2.75  32 2.75
  51  0.833  0.500  0.833-   7 2.61   9 2.61  25 2.61  27 2.61  22 2.61  24 2.61   4 2.61   6 2.61
                            42 2.75  48 2.75  54 2.75  33 2.75
  52  0.833  0.833  0.167-   2 2.61   8 2.61  20 2.61  26 2.61  19 2.61   7 2.61  25 2.61   1 2.61
                            43 2.75  49 2.75  46 2.75  34 2.75
  53  0.833  0.833  0.500-   3 2.61   9 2.61  21 2.61  27 2.61  20 2.61   8 2.61  26 2.61   2 2.61
                            44 2.75  50 2.75  47 2.75  35 2.75
  54  0.833  0.833  0.833-   1 2.61   3 2.61   7 2.61   9 2.61  19 2.61  21 2.61  25 2.61  27 2.61
                            45 2.75  51 2.75  48 2.75  36 2.75
 
  LATTYP: Found a simple tetragonal cell.
 ALAT       =     8.2501481662
 C/A-ratio  =     1.2642089792
  
  Lattice vectors:
  
 A1 = (   8.2501481662,   0.0000000000,   0.0000000000)
 A2 = (   0.0000000000,   8.2501481662,   0.0000000000)
 A3 = (   0.0000000000,   0.0000000000,  10.4299113916)


Analysis of symmetry for initial positions (statically):
=====================================================================
 Subroutine PRICEL returns following result:
 
  LATTYP: Found a simple tetragonal cell.
 ALAT       =     2.7500493888
 C/A-ratio  =     1.2642089792
  
  Lattice vectors:
  
 A1 = (   2.7500493888,   0.0000000000,   0.0000000000)
 A2 = (   0.0000000000,   2.7500493888,   0.0000000000)
 A3 = (   0.0000000000,   0.0000000000,   3.4766371306)
 
  27 primitive cells build up your supercell.
 

 Routine SETGRP: Setting up the symmetry group for a 
 simple tetragonal supercell.


 Subroutine GETGRP returns: Found 16 space group operations
 (whereof 16 operations were pure point group operations)
 out of a pool of 16 trial point group operations.


The static configuration has the point symmetry D_4h.


Analysis of symmetry for dynamics (positions and initial velocities):
=====================================================================
 Subroutine PRICEL returns following result:
 
  LATTYP: Found a simple tetragonal cell.
 ALAT       =     2.7500493888
 C/A-ratio  =     1.2642089792
  
  Lattice vectors:
  
 A1 = (   2.7500493888,   0.0000000000,   0.0000000000)
 A2 = (   0.0000000000,   2.7500493888,   0.0000000000)
 A3 = (   0.0000000000,   0.0000000000,   3.4766371306)
 
  27 primitive cells build up your supercell.
 

 Routine SETGRP: Setting up the symmetry group for a 
 simple tetragonal supercell.


 Subroutine GETGRP returns: Found 16 space group operations
 (whereof 16 operations were pure point group operations)
 out of a pool of 16 trial point group operations.


The dynamic configuration has the point symmetry D_4h.


Analysis of structural, dynamic, and magnetic symmetry:
=====================================================================
 Subroutine PRICEL returns:
 Original cell was already a primitive cell.
 

 Routine SETGRP: Setting up the symmetry group for a 
 simple tetragonal supercell.


 Subroutine GETGRP returns: Found  4 space group operations
 (whereof  2 operations were pure point group operations)
 out of a pool of 16 trial point group operations.


The magnetic configuration has the point symmetry C_1h.
 The point group associated with its full space group is C_2v.


 Subroutine INISYM returns: Found  4 space group operations
 (whereof  2 operations are pure point group operations),
 and found     1 'primitive' translations

 
 
 KPOINTS: automatic KPOINTS                       

Automatic generation of k-mesh.
 generate k-points for:    5    5    4
Space group operators:
 irot       det(A)        alpha          n_x          n_y          n_z        tau_x        tau_y        tau_z
    1     1.000000     0.000001     1.000000     0.000000     0.000000     0.000000     0.000000     0.000000
    2    -1.000000   180.000000     1.000000     0.000000     0.000000     0.000000     0.000000     0.000000
    3     1.000000   180.000000     0.000000     0.000000     1.000000     0.000000     0.333333     0.000000
    4    -1.000000   180.000000     0.000000     1.000000     0.000000     0.000000     0.333333     0.000000
 
 Subroutine IBZKPT returns following result:
 ===========================================
 
 Found     27 irreducible k-points:
 
 Following reciprocal coordinates:
            Coordinates               Weight
  0.000000  0.000000  0.000000      1.000000
  0.200000  0.000000  0.000000      2.000000
  0.400000  0.000000  0.000000      2.000000
  0.000000  0.200000  0.000000      2.000000
  0.200000  0.200000  0.000000      4.000000
  0.400000  0.200000  0.000000      4.000000
  0.000000  0.400000  0.000000      2.000000
  0.200000  0.400000  0.000000      4.000000
  0.400000  0.400000  0.000000      4.000000
  0.000000  0.000000  0.250000      2.000000
  0.200000  0.000000  0.250000      4.000000
  0.400000  0.000000  0.250000      4.000000
  0.000000  0.200000  0.250000      4.000000
  0.200000  0.200000  0.250000      8.000000
  0.400000  0.200000  0.250000      8.000000
  0.000000  0.400000  0.250000      4.000000
  0.200000  0.400000  0.250000      8.000000
  0.400000  0.400000  0.250000      8.000000
  0.000000  0.000000  0.500000      1.000000
  0.200000  0.000000  0.500000      2.000000
  0.400000  0.000000  0.500000      2.000000
  0.000000  0.200000  0.500000      2.000000
  0.200000  0.200000  0.500000      4.000000
  0.400000  0.200000  0.500000      4.000000
  0.000000  0.400000  0.500000      2.000000
  0.200000  0.400000  0.500000      4.000000
  0.400000  0.400000  0.500000      4.000000
 
 Following cartesian coordinates:
            Coordinates               Weight
  0.000000  0.000000  0.000000      1.000000
  0.024242  0.000000  0.000000      2.000000
  0.048484  0.000000  0.000000      2.000000
  0.000000  0.024242  0.000000      2.000000
  0.024242  0.024242  0.000000      4.000000
  0.048484  0.024242  0.000000      4.000000
  0.000000  0.048484  0.000000      2.000000
  0.024242  0.048484  0.000000      4.000000
  0.048484  0.048484  0.000000      4.000000
  0.000000  0.000000  0.023970      2.000000
  0.024242  0.000000  0.023970      4.000000
  0.048484  0.000000  0.023970      4.000000
  0.000000  0.024242  0.023970      4.000000
  0.024242  0.024242  0.023970      8.000000
  0.048484  0.024242  0.023970      8.000000
  0.000000  0.048484  0.023970      4.000000
  0.024242  0.048484  0.023970      8.000000
  0.048484  0.048484  0.023970      8.000000
  0.000000  0.000000  0.047939      1.000000
  0.024242  0.000000  0.047939      2.000000
  0.048484  0.000000  0.047939      2.000000
  0.000000  0.024242  0.047939      2.000000
  0.024242  0.024242  0.047939      4.000000
  0.048484  0.024242  0.047939      4.000000
  0.000000  0.048484  0.047939      2.000000
  0.024242  0.048484  0.047939      4.000000
  0.048484  0.048484  0.047939      4.000000
 


--------------------------------------------------------------------------------------------------------




 Dimension of arrays:
   k-points           NKPTS =     27   k-points in BZ     NKDIM =     27   number of bands    NBANDS=    172
   number of dos      NEDOS =    301   number of ions     NIONS =     54
   non local maximal  LDIM  =      6   non local SUM 2l+1 LMDIM =     18
   total plane-waves  NPLWV = 204120
   max r-space proj   IRMAX =      1   max aug-charges    IRDMAX=  89713
   dimension x,y,z NGX =    54 NGY =   54 NGZ =   70
   dimension x,y,z NGXF=   108 NGYF=  108 NGZF=  140
   support grid    NGXF=   216 NGYF=  216 NGZF=  280
   ions per type =              27  27
   NGX,Y,Z   is equivalent  to a cutoff of  10.88, 10.88, 11.16 a.u.
   NGXF,Y,Z  is equivalent  to a cutoff of  21.76, 21.76, 22.32 a.u.

 SYSTEM =  AlMn_pv                                 
 POSCAR =  NewRef: 27, @ ['Mn', array([1.37502469, 

 Startparameter for this run:
   NWRITE =      2    write-flag & timer
   PREC   = accura    normal or accurate (medium, high low for compatibility)
   ISTART =      0    job   : 0-new  1-cont  2-samecut
   ICHARG =      2    charge: 1-file 2-atom 10-const
   ISPIN  =      2    spin polarized calculation?
   LNONCOLLINEAR =      F non collinear calculations
   LSORBIT =      F    spin-orbit coupling
   INIWAV =      1    electr: 0-lowe 1-rand  2-diag
   LASPH  =      F    aspherical Exc in radial PAW
   METAGGA=      F    non-selfconsistent MetaGGA calc.

 Electronic Relaxation 1
   ENCUT  =  404.8 eV  29.75 Ry    5.45 a.u.  13.53 13.53 17.11*2*pi/ulx,y,z
   ENINI  =  404.8     initial cutoff
   ENAUG  =  500.7 eV  augmentation charge cutoff
   NELM   =    100;   NELMIN=  4; NELMDL= -8     # of ELM steps 
   EDIFF  = 0.1E-06   stopping-criterion for ELM
   LREAL  =      F    real-space projection
   NLSPLINE    = F    spline interpolate recip. space projectors
   LCOMPAT=      F    compatible to vasp.4.4
   GGA_COMPAT  = T    GGA compatible to vasp.4.4-vasp.4.6
   LMAXPAW     = -100 max onsite density
   LMAXMIX     =    2 max onsite mixed and CHGCAR
   VOSKOWN=      0    Vosko Wilk Nusair interpolation
   ROPT   =    0.00000   0.00000
 Ionic relaxation
   EDIFFG = 0.1E-05   stopping-criterion for IOM
   NSW    =      0    number of steps for IOM
   NBLOCK =      1;   KBLOCK =      1    inner block; outer block 
   IBRION =     -1    ionic relax: 0-MD 1-quasi-New 2-CG
   NFREE  =      0    steps in history (QN), initial steepest desc. (CG)
   ISIF   =      2    stress and relaxation
   IWAVPR =     10    prediction:  0-non 1-charg 2-wave 3-comb
   ISYM   =      2    0-nonsym 1-usesym 2-fastsym
   LCORR  =      T    Harris-Foulkes like correction to forces

   POTIM  = 0.2000    time-step for ionic-motion
   TEIN   =    0.0    initial temperature
   TEBEG  =    0.0;   TEEND  =   0.0 temperature during run
   SMASS  =  -3.00    Nose mass-parameter (am)
   estimated Nose-frequenzy (Omega)   =  0.10E-29 period in steps =****** mass=  -0.156E-26a.u.
   SCALEE = 1.0000    scale energy and forces
   NPACO  =    256;   APACO  = 16.0  distance and # of slots for P.C.
   PSTRESS=    0.0 pullay stress

  Mass of Ions in am
   POMASS =  26.98 54.94
  Ionic Valenz
   ZVAL   =   3.00  7.00
  Atomic Wigner-Seitz radii
   RWIGS  =  -1.00 -1.00
  virtual crystal weights 
   VCA    =   1.00  1.00
   NELECT =     270.0000    total number of electrons
   NUPDOWN=      -1.0000    fix difference up-down

 DOS related values:
   EMIN   =  10.00;   EMAX   =-10.00  energy-range for DOS
   EFERMI =   0.00
   ISMEAR =     1;   SIGMA  =   0.20  broadening in eV -4-tet -1-fermi 0-gaus

 Electronic relaxation 2 (details)
   IALGO  =     58    algorithm
   LDIAG  =      T    sub-space diagonalisation (order eigenvalues)
   LSUBROT=      F    optimize rotation matrix (better conditioning)
   TURBO    =      0    0=normal 1=particle mesh
   IRESTART =      0    0=no restart 2=restart with 2 vectors
   NREBOOT  =      0    no. of reboots
   NMIN     =      0    reboot dimension
   EREF     =   0.00    reference energy to select bands
   IMIX   =      4    mixing-type and parameters
     AMIX     =   0.40;   BMIX     =  1.00
     AMIX_MAG =   1.60;   BMIX_MAG =  1.00
     AMIN     =   0.10
     WC   =   100.;   INIMIX=   1;  MIXPRE=   1;  MAXMIX= -45

 Intra band minimization:
   WEIMIN = 0.0000     energy-eigenvalue tresh-hold
   EBREAK =  0.15E-09  absolut break condition
   DEPER  =   0.30     relativ break condition  

   TIME   =   0.40     timestep for ELM

  volume/ion in A,a.u.               =      13.15        88.72
  Fermi-wavevector in a.u.,A,eV,Ry     =   1.186118  2.241439 19.141722  1.406877
  Thomas-Fermi vector in A             =   2.322298
 
 Write flags
   LWAVE        =      F    write WAVECAR
   LDOWNSAMPLE  =      F    k-point downsampling of WAVECAR
   LCHARG       =      F    write CHGCAR
   LVTOT        =      F    write LOCPOT, total local potential
   LVHAR        =      F    write LOCPOT, Hartree potential only
   LELF         =      F    write electronic localiz. function (ELF)
   LORBIT       =     10    0 simple, 1 ext, 2 COOP (PROOUT), +10 PAW based schemes


 Dipole corrections
   LMONO  =      F    monopole corrections only (constant potential shift)
   LDIPOL =      F    correct potential (dipole corrections)
   IDIPOL =      0    1-x, 2-y, 3-z, 4-all directions 
   EPSILON=  1.0000000 bulk dielectric constant

 Exchange correlation treatment:
   GGA     =    --    GGA type
   LEXCH   =     8    internal setting for exchange type
   VOSKOWN=      0    Vosko Wilk Nusair interpolation
   LHFCALC =     F    Hartree Fock is set to
   LHFONE  =     F    Hartree Fock one center treatment
   AEXX    =    0.0000 exact exchange contribution

 Linear response parameters
   LEPSILON=     F    determine dielectric tensor
   LRPA    =     F    only Hartree local field effects (RPA)
   LNABLA  =     F    use nabla operator in PAW spheres
   LVEL    =     F    velocity operator in full k-point grid
   LINTERFAST=   F  fast interpolation
   KINTER  =     0    interpolate to denser k-point grid
   CSHIFT  =0.1000    complex shift for real part using Kramers Kronig
   OMEGAMAX=  -1.0    maximum frequency
   DEG_THRESHOLD= 0.2000000E-02 threshold for treating states as degnerate
   RTIME   =   -0.100 relaxation time in fs
  (WPLASMAI=    0.000 imaginary part of plasma frequency in eV, 0.658/RTIME)
   DFIELD  = 0.0000000 0.0000000 0.0000000 field for delta impulse in time
 
 Orbital magnetization related:
   ORBITALMAG=     F  switch on orbital magnetization
   LCHIMAG   =     F  perturbation theory with respect to B field
   DQ        =  0.001000  dq finite difference perturbation B field
   LLRAUG    =     F  two centre corrections for induced B field



--------------------------------------------------------------------------------------------------------


 Static calculation
 charge density and potential will be updated during run
 spin polarized calculation
 Conjugate gradient for all bands (Freysoldt, et al. PRB 79, 241103 (2009))
 preconditioned conjugated gradient                                        
 perform sub-space diagonalisation
    before iterative eigenvector-optimisation
 modified Broyden-mixing scheme, WC =      100.0
 initial mixing is a Kerker type mixing with AMIX =  0.4000 and BMIX =      1.0000
 Hartree-type preconditioning will be used
 using additional bands           37
 reciprocal scheme for non local part
 use partial core corrections
 no Harris-corrections to forces 
 use gradient corrections 
 use of overlap-Matrix (Vanderbilt PP)
 Methfessel and Paxton  Order N= 1 SIGMA  =   0.20


--------------------------------------------------------------------------------------------------------


  energy-cutoff  :      404.80
  volume of cell :      709.91
      direct lattice vectors                 reciprocal lattice vectors
     8.250148166  0.000000000  0.000000000     0.121209944  0.000000000  0.000000000
     0.000000000  8.250148166  0.000000000     0.000000000  0.121209944  0.000000000
     0.000000000  0.000000000 10.429911392     0.000000000  0.000000000  0.095878092

  length of vectors
     8.250148166  8.250148166 10.429911392     0.121209944  0.121209944  0.095878092


 
 k-points in units of 2pi/SCALE and weight: automatic KPOINTS                       
   0.00000000  0.00000000  0.00000000       0.010
   0.02424199  0.00000000  0.00000000       0.020
   0.04848398  0.00000000  0.00000000       0.020
   0.00000000  0.02424199  0.00000000       0.020
   0.02424199  0.02424199  0.00000000       0.040
   0.04848398  0.02424199  0.00000000       0.040
   0.00000000  0.04848398  0.00000000       0.020
   0.02424199  0.04848398  0.00000000       0.040
   0.04848398  0.04848398  0.00000000       0.040
   0.00000000  0.00000000  0.02396952       0.020
   0.02424199  0.00000000  0.02396952       0.040
   0.04848398  0.00000000  0.02396952       0.040
   0.00000000  0.02424199  0.02396952       0.040
   0.02424199  0.02424199  0.02396952       0.080
   0.04848398  0.02424199  0.02396952       0.080
   0.00000000  0.04848398  0.02396952       0.040
   0.02424199  0.04848398  0.02396952       0.080
   0.04848398  0.04848398  0.02396952       0.080
   0.00000000  0.00000000  0.04793905       0.010
   0.02424199  0.00000000  0.04793905       0.020
   0.04848398  0.00000000  0.04793905       0.020
   0.00000000  0.02424199  0.04793905       0.020
   0.02424199  0.02424199  0.04793905       0.040
   0.04848398  0.02424199  0.04793905       0.040
   0.00000000  0.04848398  0.04793905       0.020
   0.02424199  0.04848398  0.04793905       0.040
   0.04848398  0.04848398  0.04793905       0.040
 
 k-points in reciprocal lattice and weights: automatic KPOINTS                       
   0.00000000  0.00000000  0.00000000       0.010
   0.20000000  0.00000000  0.00000000       0.020
   0.40000000  0.00000000  0.00000000       0.020
   0.00000000  0.20000000  0.00000000       0.020
   0.20000000  0.20000000  0.00000000       0.040
   0.40000000  0.20000000  0.00000000       0.040
   0.00000000  0.40000000  0.00000000       0.020
   0.20000000  0.40000000  0.00000000       0.040
   0.40000000  0.40000000  0.00000000       0.040
   0.00000000  0.00000000  0.25000000       0.020
   0.20000000  0.00000000  0.25000000       0.040
   0.40000000  0.00000000  0.25000000       0.040
   0.00000000  0.20000000  0.25000000       0.040
   0.20000000  0.20000000  0.25000000       0.080
   0.40000000  0.20000000  0.25000000       0.080
   0.00000000  0.40000000  0.25000000       0.040
   0.20000000  0.40000000  0.25000000       0.080
   0.40000000  0.40000000  0.25000000       0.080
   0.00000000  0.00000000  0.50000000       0.010
   0.20000000  0.00000000  0.50000000       0.020
   0.40000000  0.00000000  0.50000000       0.020
   0.00000000  0.20000000  0.50000000       0.020
   0.20000000  0.20000000  0.50000000       0.040
   0.40000000  0.20000000  0.50000000       0.040
   0.00000000  0.40000000  0.50000000       0.020
   0.20000000  0.40000000  0.50000000       0.040
   0.40000000  0.40000000  0.50000000       0.040
 
 position of ions in fractional coordinates (direct lattice) 
   0.00000000  0.00000000  0.00000000
   0.00000000  0.00000000  0.33333333
   0.00000000  0.00000000  0.66666667
   0.00000000  0.33333333  0.00000000
   0.00000000  0.33333333  0.33333333
   0.00000000  0.33333333  0.66666667
   0.00000000  0.66666667  0.00000000
   0.00000000  0.66666667  0.33333333
   0.00000000  0.66666667  0.66666667
   0.33333333  0.00000000  0.00000000
   0.33333333  0.00000000  0.33333333
   0.33333333  0.00000000  0.66666667
   0.33333333  0.33333333  0.00000000
   0.33333333  0.33333333  0.33333333
   0.33333333  0.33333333  0.66666667
   0.33333333  0.66666667  0.00000000
   0.33333333  0.66666667  0.33333333
   0.33333333  0.66666667  0.66666667
   0.66666667  0.00000000  0.00000000
   0.66666667  0.00000000  0.33333333
   0.66666667  0.00000000  0.66666667
   0.66666667  0.33333333  0.00000000
   0.66666667  0.33333333  0.33333333
   0.66666667  0.33333333  0.66666667
   0.66666667  0.66666667  0.00000000
   0.66666667  0.66666667  0.33333333
   0.66666667  0.66666667  0.66666667
   0.16666667  0.16666667  0.16666667
   0.16666667  0.16666667  0.50000000
   0.16666667  0.16666667  0.83333333
   0.16666667  0.50000000  0.16666667
   0.16666667  0.50000000  0.50000000
   0.16666667  0.50000000  0.83333333
   0.16666667  0.83333333  0.16666667
   0.16666667  0.83333333  0.50000000
   0.16666667  0.83333333  0.83333333
   0.50000000  0.16666667  0.16666667
   0.50000000  0.16666667  0.50000000
   0.50000000  0.16666667  0.83333333
   0.50000000  0.50000000  0.16666667
   0.50000000  0.50000000  0.50000000
   0.50000000  0.50000000  0.83333333
   0.50000000  0.83333333  0.16666667
   0.50000000  0.83333333  0.50000000
   0.50000000  0.83333333  0.83333333
   0.83333333  0.16666667  0.16666667
   0.83333333  0.16666667  0.50000000
   0.83333333  0.16666667  0.83333333
   0.83333333  0.50000000  0.16666667
   0.83333333  0.50000000  0.50000000
   0.83333333  0.50000000  0.83333333
   0.83333333  0.83333333  0.16666667
   0.83333333  0.83333333  0.50000000
   0.83333333  0.83333333  0.83333333
 
 position of ions in cartesian coordinates  (Angst):
   0.00000000  0.00000000  0.00000000
   0.00000000  0.00000000  3.47663713
   0.00000000  0.00000000  6.95327426
   0.00000000  2.75004939  0.00000000
   0.00000000  2.75004939  3.47663713
   0.00000000  2.75004939  6.95327426
   0.00000000  5.50009878  0.00000000
   0.00000000  5.50009878  3.47663713
   0.00000000  5.50009878  6.95327426
   2.75004939  0.00000000  0.00000000
   2.75004939  0.00000000  3.47663713
   2.75004939  0.00000000  6.95327426
   2.75004939  2.75004939  0.00000000
   2.75004939  2.75004939  3.47663713
   2.75004939  2.75004939  6.95327426
   2.75004939  5.50009878  0.00000000
   2.75004939  5.50009878  3.47663713
   2.75004939  5.50009878  6.95327426
   5.50009878  0.00000000  0.00000000
   5.50009878  0.00000000  3.47663713
   5.50009878  0.00000000  6.95327426
   5.50009878  2.75004939  0.00000000
   5.50009878  2.75004939  3.47663713
   5.50009878  2.75004939  6.95327426
   5.50009878  5.50009878  0.00000000
   5.50009878  5.50009878  3.47663713
   5.50009878  5.50009878  6.95327426
   1.37502469  1.37502469  1.73831857
   1.37502469  1.37502469  5.21495570
   1.37502469  1.37502469  8.69159283
   1.37502469  4.12507408  1.73831857
   1.37502469  4.12507408  5.21495570
   1.37502469  4.12507408  8.69159283
   1.37502469  6.87512347  1.73831857
   1.37502469  6.87512347  5.21495570
   1.37502469  6.87512347  8.69159283
   4.12507408  1.37502469  1.73831857
   4.12507408  1.37502469  5.21495570
   4.12507408  1.37502469  8.69159283
   4.12507408  4.12507408  1.73831857
   4.12507408  4.12507408  5.21495570
   4.12507408  4.12507408  8.69159283
   4.12507408  6.87512347  1.73831857
   4.12507408  6.87512347  5.21495570
   4.12507408  6.87512347  8.69159283
   6.87512347  1.37502469  1.73831857
   6.87512347  1.37502469  5.21495570
   6.87512347  1.37502469  8.69159283
   6.87512347  4.12507408  1.73831857
   6.87512347  4.12507408  5.21495570
   6.87512347  4.12507408  8.69159283
   6.87512347  6.87512347  1.73831857
   6.87512347  6.87512347  5.21495570
   6.87512347  6.87512347  8.69159283
 


--------------------------------------------------------------------------------------------------------


 k-point  1 :   0.0000 0.0000 0.0000  plane waves:   13099
 k-point  2 :   0.2000 0.0000 0.0000  plane waves:   13101
 k-point  3 :   0.4000 0.0000 0.0000  plane waves:   13111
 k-point  4 :   0.0000 0.2000 0.0000  plane waves:   13101
 k-point  5 :   0.2000 0.2000 0.0000  plane waves:   13137
 k-point  6 :   0.4000 0.2000 0.0000  plane waves:   13119
 k-point  7 :   0.0000 0.4000 0.0000  plane waves:   13111
 k-point  8 :   0.2000 0.4000 0.0000  plane waves:   13119
 k-point  9 :   0.4000 0.4000 0.0000  plane waves:   13129
 k-point 10 :   0.0000 0.0000 0.2500  plane waves:   13134
 k-point 11 :   0.2000 0.0000 0.2500  plane waves:   13149
 k-point 12 :   0.4000 0.0000 0.2500  plane waves:   13119
 k-point 13 :   0.0000 0.2000 0.2500  plane waves:   13149
 k-point 14 :   0.2000 0.2000 0.2500  plane waves:   13145
 k-point 15 :   0.4000 0.2000 0.2500  plane waves:   13134
 k-point 16 :   0.0000 0.4000 0.2500  plane waves:   13119
 k-point 17 :   0.2000 0.4000 0.2500  plane waves:   13134
 k-point 18 :   0.4000 0.4000 0.2500  plane waves:   13108
 k-point 19 :   0.0000 0.0000 0.5000  plane waves:   13186
 k-point 20 :   0.2000 0.0000 0.5000  plane waves:   13124
 k-point 21 :   0.4000 0.0000 0.5000  plane waves:   13152
 k-point 22 :   0.0000 0.2000 0.5000  plane waves:   13124
 k-point 23 :   0.2000 0.2000 0.5000  plane waves:   13136
 k-point 24 :   0.4000 0.2000 0.5000  plane waves:   13128
 k-point 25 :   0.0000 0.4000 0.5000  plane waves:   13152
 k-point 26 :   0.2000 0.4000 0.5000  plane waves:   13128
 k-point 27 :   0.4000 0.4000 0.5000  plane waves:   13112

 maximum and minimum number of plane-waves per node :      3304     3246

 maximum number of plane-waves:     13186
 maximum index in each direction: 
   IXMAX=   13   IYMAX=   13   IZMAX=   17
   IXMIN=  -13   IYMIN=  -13   IZMIN=  -17


 parallel 3D FFT for wavefunctions:
    minimum data exchange during FFTs selected (reduces bandwidth)
 parallel 3D FFT for charge:
    minimum data exchange during FFTs selected (reduces bandwidth)


 total amount of memory used by VASP MPI-rank0   887625. kBytes
=======================================================================

   base      :      30000. kBytes
   nonl-proj :      28494. kBytes
   fftplans  :      31580. kBytes
   grid      :      21385. kBytes
   one-center:        435. kBytes
   wavefun   :     775731. kBytes
 
     INWAV:  cpu time    0.0001: real time    0.0001
 Broyden mixing: mesh for mixing (old mesh)
   NGX = 27   NGY = 27   NGZ = 35
  (NGX  =108   NGY  =108   NGZ  =140)
  gives a total of  25515 points

 initial charge density was supplied:
 charge density of overlapping atoms calculated
 number of electron     270.0000000 magnetization      15.0000000
 keeping initial charge density in first step


--------------------------------------------------------------------------------------------------------


 Maximum index for augmentation-charges        10967 (set IRDMAX)


--------------------------------------------------------------------------------------------------------


 First call to EWALD:  gamma=   0.199
 Maximum number of real-space cells 3x 3x 2
 Maximum number of reciprocal cells 3x 3x 3

    FEWALD:  cpu time    0.0025: real time    0.0025


--------------------------------------- Iteration      1(   1)  ---------------------------------------


    POTLOK:  cpu time    0.3991: real time    0.3992
    SETDIJ:  cpu time    0.4613: real time    0.4617
    TRIAL :  cpu time   30.3255: real time   31.2644
    CORREC:  cpu time    0.0054: real time    0.0055
    --------------------------------------------
      LOOP:  cpu time   31.4557: real time   32.4023

 eigenvalue-minimisations  : 18576
 total energy-change (2. order) : 0.2039299E+04  (-0.8839116E+04)
 number of electron     270.0000000 magnetization      15.0000000
 augmentation part      270.0000000 magnetization      15.0000000

 Free energy of the ion-electron system (eV)
  ---------------------------------------------------
  alpha Z        PSCENC =       798.38614055
  Ewald energy   TEWEN  =    -12901.57693327
  -Hartree energ DENC   =     -2855.60785864
  -exchange      EXHF   =         0.00000000
  -V(xc)+E(xc)   XCENC  =      -996.06378194
  PAW double counting   =     12741.82587617   -11476.22345381
  entropy T*S    EENTRO =        -0.00376675
  eigenvalues    EBANDS =      4030.88877671
  atomic energy  EATOM  =     12697.67401269
  ---------------------------------------------------
  free energy    TOTEN  =      2039.29901170 eV

  energy without entropy =     2039.30277845  energy(sigma->0) =     2039.30026729


--------------------------------------------------------------------------------------------------------




--------------------------------------- Iteration      1(   2)  ---------------------------------------


    TRIAL :  cpu time   31.4503: real time   31.5400
    CORREC:  cpu time    0.0067: real time    0.0076
    --------------------------------------------
      LOOP:  cpu time   31.4581: real time   31.5508

 eigenvalue-minimisations  : 18576
 total energy-change (2. order) :-0.2129550E+04  (-0.2074999E+04)
 number of electron     270.0000000 magnetization      15.0000000
 augmentation part      270.0000000 magnetization      15.0000000

 Free energy of the ion-electron system (eV)
  ---------------------------------------------------
  alpha Z        PSCENC =       798.38614055
  Ewald energy   TEWEN  =    -12901.57693327
  -Hartree energ DENC   =     -2855.60785864
  -exchange      EXHF   =         0.00000000
  -V(xc)+E(xc)   XCENC  =      -996.06378194
  PAW double counting   =     12741.82587617   -11476.22345381
  entropy T*S    EENTRO =         0.00274746
  eigenvalues    EBANDS =      1901.33232641
  atomic energy  EATOM  =     12697.67401269
  ---------------------------------------------------
  free energy    TOTEN  =       -90.25092439 eV

  energy without entropy =      -90.25367185  energy(sigma->0) =      -90.25184021


--------------------------------------------------------------------------------------------------------




--------------------------------------- Iteration      1(   3)  ---------------------------------------


    TRIAL :  cpu time   42.2675: real time   43.2136
    CORREC:  cpu time    0.0077: real time    0.0086
    --------------------------------------------
      LOOP:  cpu time   42.2768: real time   43.2251

 eigenvalue-minimisations  : 27888
 total energy-change (2. order) :-0.2645596E+03  (-0.2340139E+03)
 number of electron     270.0000000 magnetization      15.0000000
 augmentation part      270.0000000 magnetization      15.0000000

 Free energy of the ion-electron system (eV)
  ---------------------------------------------------
  alpha Z        PSCENC =       798.38614055
  Ewald energy   TEWEN  =    -12901.57693327
  -Hartree energ DENC   =     -2855.60785864
  -exchange      EXHF   =         0.00000000
  -V(xc)+E(xc)   XCENC  =      -996.06378194
  PAW double counting   =     12741.82587617   -11476.22345381
  entropy T*S    EENTRO =         0.01364017
  eigenvalues    EBANDS =      1636.76184367
  atomic energy  EATOM  =     12697.67401269
  ---------------------------------------------------
  free energy    TOTEN  =      -354.81051442 eV

  energy without entropy =     -354.82415459  energy(sigma->0) =     -354.81506115


--------------------------------------------------------------------------------------------------------




--------------------------------------- Iteration      1(   4)  ---------------------------------------


    TRIAL :  cpu time   45.2219: real time   46.2032
    CORREC:  cpu time    0.0082: real time    0.0091
    --------------------------------------------
      LOOP:  cpu time   45.2310: real time   46.2157

 eigenvalue-minimisations  : 30224
 total energy-change (2. order) :-0.4418747E+02  (-0.3893465E+02)
 number of electron     270.0000000 magnetization      15.0000000
 augmentation part      270.0000000 magnetization      15.0000000

 Free energy of the ion-electron system (eV)
  ---------------------------------------------------
  alpha Z        PSCENC =       798.38614055
  Ewald energy   TEWEN  =    -12901.57693327
  -Hartree energ DENC   =     -2855.60785864
  -exchange      EXHF   =         0.00000000
  -V(xc)+E(xc)   XCENC  =      -996.06378194
  PAW double counting   =     12741.82587617   -11476.22345381
  entropy T*S    EENTRO =         0.03883175
  eigenvalues    EBANDS =      1592.54918434
  atomic energy  EATOM  =     12697.67401269
  ---------------------------------------------------
  free energy    TOTEN  =      -398.99798218 eV

  energy without entropy =     -399.03681392  energy(sigma->0) =     -399.01092609


--------------------------------------------------------------------------------------------------------




--------------------------------------- Iteration      1(   5)  ---------------------------------------


    TRIAL :  cpu time   45.7263: real time   47.4812
    CORREC:  cpu time    0.0083: real time    0.0092
    --------------------------------------------
      LOOP:  cpu time   45.7358: real time   47.4937

 eigenvalue-minimisations  : 30752
 total energy-change (2. order) :-0.4757247E+01  (-0.4546932E+01)
 number of electron     270.0000000 magnetization      15.0000000
 augmentation part      270.0000000 magnetization      15.0000000

 Free energy of the ion-electron system (eV)
  ---------------------------------------------------
  alpha Z        PSCENC =       798.38614055
  Ewald energy   TEWEN  =    -12901.57693327
  -Hartree energ DENC   =     -2855.60785864
  -exchange      EXHF   =         0.00000000
  -V(xc)+E(xc)   XCENC  =      -996.06378194
  PAW double counting   =     12741.82587617   -11476.22345381
  entropy T*S    EENTRO =         0.04450049
  eigenvalues    EBANDS =      1587.78626881
  atomic energy  EATOM  =     12697.67401269
  ---------------------------------------------------
  free energy    TOTEN  =      -403.75522896 eV

  energy without entropy =     -403.79972945  energy(sigma->0) =     -403.77006246


--------------------------------------------------------------------------------------------------------




--------------------------------------- Iteration      1(   6)  ---------------------------------------


    TRIAL :  cpu time   46.4333: real time   47.4491
    CORREC:  cpu time    0.0084: real time    0.0086
    --------------------------------------------
      LOOP:  cpu time   46.4434: real time   47.4606

 eigenvalue-minimisations  : 30616
 total energy-change (2. order) :-0.3870649E+00  (-0.3791012E+00)
 number of electron     270.0000000 magnetization      15.0000000
 augmentation part      270.0000000 magnetization      15.0000000

 Free energy of the ion-electron system (eV)
  ---------------------------------------------------
  alpha Z        PSCENC =       798.38614055
  Ewald energy   TEWEN  =    -12901.57693327
  -Hartree energ DENC   =     -2855.60785864
  -exchange      EXHF   =         0.00000000
  -V(xc)+E(xc)   XCENC  =      -996.06378194
  PAW double counting   =     12741.82587617   -11476.22345381
  entropy T*S    EENTRO =         0.04594271
  eigenvalues    EBANDS =      1587.39776171
  atomic energy  EATOM  =     12697.67401269
  ---------------------------------------------------
  free energy    TOTEN  =      -404.14229384 eV

  energy without entropy =     -404.18823655  energy(sigma->0) =     -404.15760807


--------------------------------------------------------------------------------------------------------




--------------------------------------- Iteration      1(   7)  ---------------------------------------


    TRIAL :  cpu time   47.1311: real time   47.4116
    CORREC:  cpu time    0.0084: real time    0.0093
    --------------------------------------------
      LOOP:  cpu time   47.1411: real time   47.4241

 eigenvalue-minimisations  : 31184
 total energy-change (2. order) :-0.4366278E-01  (-0.4322838E-01)
 number of electron     270.0000000 magnetization      15.0000000
 augmentation part      270.0000000 magnetization      15.0000000

 Free energy of the ion-electron system (eV)
  ---------------------------------------------------
  alpha Z        PSCENC =       798.38614055
  Ewald energy   TEWEN  =    -12901.57693327
  -Hartree energ DENC   =     -2855.60785864
  -exchange      EXHF   =         0.00000000
  -V(xc)+E(xc)   XCENC  =      -996.06378194
  PAW double counting   =     12741.82587617   -11476.22345381
  entropy T*S    EENTRO =         0.04630885
  eigenvalues    EBANDS =      1587.35373279
  atomic energy  EATOM  =     12697.67401269
  ---------------------------------------------------
  free energy    TOTEN  =      -404.18595662 eV

  energy without entropy =     -404.23226547  energy(sigma->0) =     -404.20139290


--------------------------------------------------------------------------------------------------------




--------------------------------------- Iteration      1(   8)  ---------------------------------------


    TRIAL :  cpu time   45.1315: real time   46.1400
    CORREC:  cpu time    0.0088: real time    0.0096
    CHARGE:  cpu time    1.5340: real time    1.5342
    --------------------------------------------
      LOOP:  cpu time   46.6762: real time   47.6879

 eigenvalue-minimisations  : 30072
 total energy-change (2. order) :-0.3718888E-02  (-0.3695449E-02)
 number of electron     269.9999995 magnetization      10.3572674
 augmentation part       64.2109041 magnetization       6.0139890

 Free energy of the ion-electron system (eV)
  ---------------------------------------------------
  alpha Z        PSCENC =       798.38614055
  Ewald energy   TEWEN  =    -12901.57693327
  -Hartree energ DENC   =     -2855.60785864
  -exchange      EXHF   =         0.00000000
  -V(xc)+E(xc)   XCENC  =      -996.06378194
  PAW double counting   =     12741.82587617   -11476.22345381
  entropy T*S    EENTRO =         0.04640989
  eigenvalues    EBANDS =      1587.34991286
  atomic energy  EATOM  =     12697.67401269
  ---------------------------------------------------
  free energy    TOTEN  =      -404.18967550 eV

  energy without entropy =     -404.23608540  energy(sigma->0) =     -404.20514547


--------------------------------------------------------------------------------------------------------




--------------------------------------- Iteration      1(   9)  ---------------------------------------


    POTLOK:  cpu time    0.4004: real time    0.4004
    SETDIJ:  cpu time    0.4648: real time    0.4648
    TRIAL :  cpu time   16.1137: real time   16.1903
    CORREC:  cpu time    5.0223: real time    5.0936
    CHARGE:  cpu time    1.7977: real time    2.4833
    --------------------------------------------
      LOOP:  cpu time   23.8076: real time   24.6412

 eigenvalue-minimisations  :     0
 total energy-change (2. order) : 0.2994816E+03  (-0.2176205E+03)
 number of electron     269.9999993 magnetization      10.9002364
 augmentation part       82.5983117 magnetization       7.2529594

 Free energy of the ion-electron system (eV)
  ---------------------------------------------------
  alpha Z        PSCENC =       798.38614055
  Ewald energy   TEWEN  =    -12901.57693327
  -Hartree energ DENC   =     -1273.05992249
  -exchange      EXHF   =         0.00000000
  -V(xc)+E(xc)   XCENC  =     -1041.62315469
  PAW double counting   =     19169.87573942   -17750.35768569
  entropy T*S    EENTRO =         0.03079572
  eigenvalues    EBANDS =       195.92730172
  atomic energy  EATOM  =     12697.67401269
  ---------------------------------------------------
  free energy    TOTEN  =      -104.70809186 eV

  energy without entropy =     -104.73888758  energy(sigma->0) =     -104.71835710


--------------------------------------------------------------------------------------------------------




--------------------------------------- Iteration      1(  10)  ---------------------------------------


    POTLOK:  cpu time    0.3960: real time    0.3959
    SETDIJ:  cpu time    0.4832: real time    0.4832
    TRIAL :  cpu time   15.5870: real time   15.6466
    CORREC:  cpu time    4.9935: real time    4.9953
    CHARGE:  cpu time    1.5275: real time    1.5861
    --------------------------------------------
      LOOP:  cpu time   22.9900: real time   23.1110

 eigenvalue-minimisations  :     0
 total energy-change (2. order) :-0.2135882E+03  (-0.1197718E+02)
 number of electron     269.9999993 magnetization      11.1667556
 augmentation part       86.3147085 magnetization       7.5176268

 Free energy of the ion-electron system (eV)
  ---------------------------------------------------
  alpha Z        PSCENC =       798.38614055
  Ewald energy   TEWEN  =    -12901.57693327
  -Hartree energ DENC   =     -2112.88833241
  -exchange      EXHF   =         0.00000000
  -V(xc)+E(xc)   XCENC  =     -1012.28796080
  PAW double counting   =     20669.96769833   -19432.52653824
  entropy T*S    EENTRO =         0.02289047
  eigenvalues    EBANDS =       974.92481990
  atomic energy  EATOM  =     12697.67401269
  ---------------------------------------------------
  free energy    TOTEN  =      -318.29629753 eV

  energy without entropy =     -318.31918801  energy(sigma->0) =     -318.30392769


--------------------------------------------------------------------------------------------------------




--------------------------------------- Iteration      1(  11)  ---------------------------------------


    POTLOK:  cpu time    0.3962: real time    0.3962
    SETDIJ:  cpu time    0.4526: real time    0.4626
    TRIAL :  cpu time   16.1198: real time   16.2069
    CORREC:  cpu time    5.0199: real time    5.7988
    CHARGE:  cpu time    1.5184: real time    1.5186
    --------------------------------------------
      LOOP:  cpu time   23.5280: real time   24.4058

 eigenvalue-minimisations  :     0
 total energy-change (2. order) :-0.1141250E+02  (-0.1106060E+02)
 number of electron     269.9999993 magnetization      11.2241349
 augmentation part       88.9687313 magnetization       7.7928332

 Free energy of the ion-electron system (eV)
  ---------------------------------------------------
  alpha Z        PSCENC =       798.38614055
  Ewald energy   TEWEN  =    -12901.57693327
  -Hartree energ DENC   =     -2333.33439350
  -exchange      EXHF   =         0.00000000
  -V(xc)+E(xc)   XCENC  =     -1004.13158306
  PAW double counting   =     21527.87061661   -20327.24175566
  entropy T*S    EENTRO =         0.02469979
  eigenvalues    EBANDS =      1212.62220807
  atomic energy  EATOM  =     12697.67401269
  ---------------------------------------------------
  free energy    TOTEN  =      -329.70879711 eV

  energy without entropy =     -329.73349690  energy(sigma->0) =     -329.71703037


--------------------------------------------------------------------------------------------------------




--------------------------------------- Iteration      1(  12)  ---------------------------------------


    POTLOK:  cpu time    0.3943: real time    0.3943
    SETDIJ:  cpu time    0.4579: real time    0.4578
    TRIAL :  cpu time   15.5437: real time   16.3612
    CORREC:  cpu time    5.0015: real time    5.0622
    CHARGE:  cpu time    1.5440: real time    1.5440
    --------------------------------------------
      LOOP:  cpu time   22.9564: real time   23.8356

 eigenvalue-minimisations  :     0
 total energy-change (2. order) :-0.1122234E+02  (-0.1227915E+02)
 number of electron     269.9999993 magnetization      11.5373537
 augmentation part       86.7695914 magnetization       7.9877908

 Free energy of the ion-electron system (eV)
  ---------------------------------------------------
  alpha Z        PSCENC =       798.38614055
  Ewald energy   TEWEN  =    -12901.57693327
  -Hartree energ DENC   =     -2543.27263078
  -exchange      EXHF   =         0.00000000
  -V(xc)+E(xc)   XCENC  =      -996.92822401
  PAW double counting   =     21845.43688495   -20658.92713897
  entropy T*S    EENTRO =         0.00130189
  eigenvalues    EBANDS =      1418.25205469
  atomic energy  EATOM  =     12697.67401269
  ---------------------------------------------------
  free energy    TOTEN  =      -340.93113436 eV

  energy without entropy =     -340.93243624  energy(sigma->0) =     -340.93156832


--------------------------------------------------------------------------------------------------------




--------------------------------------- Iteration      1(  13)  ---------------------------------------


    POTLOK:  cpu time    0.3943: real time    0.3944
    SETDIJ:  cpu time    0.4744: real time    0.4744
    TRIAL :  cpu time   15.6249: real time   15.7353
    CORREC:  cpu time    5.7004: real time    5.7194
    CHARGE:  cpu time    1.5231: real time    1.5233
    --------------------------------------------
      LOOP:  cpu time   23.7202: real time   23.8515

 eigenvalue-minimisations  :     0
 total energy-change (2. order) :-0.1220045E+02  (-0.8587769E+00)
 number of electron     269.9999993 magnetization      11.7349803
 augmentation part       86.1938273 magnetization       7.9944462

 Free energy of the ion-electron system (eV)
  ---------------------------------------------------
  alpha Z        PSCENC =       798.38614055
  Ewald energy   TEWEN  =    -12901.57693327
  -Hartree energ DENC   =     -2519.04200745
  -exchange      EXHF   =         0.00000000
  -V(xc)+E(xc)   XCENC  =      -998.72459276
  PAW double counting   =     21235.18174606   -19996.85773213
  entropy T*S    EENTRO =        -0.00432832
  eigenvalues    EBANDS =      1331.82648227
  atomic energy  EATOM  =     12697.67401269
  ---------------------------------------------------
  free energy    TOTEN  =      -353.13158215 eV

  energy without entropy =     -353.12725383  energy(sigma->0) =     -353.13013938


--------------------------------------------------------------------------------------------------------




--------------------------------------- Iteration      1(  14)  ---------------------------------------


    POTLOK:  cpu time    0.3932: real time    0.3932
    SETDIJ:  cpu time    0.4799: real time    0.4799
    TRIAL :  cpu time   16.2797: real time   16.3304
    CORREC:  cpu time    5.0162: real time    5.0789
    CHARGE:  cpu time    1.9034: real time    2.5685
    --------------------------------------------
      LOOP:  cpu time   24.0759: real time   24.8556

 eigenvalue-minimisations  :     0
 total energy-change (2. order) :-0.8562722E+00  (-0.1123328E+01)
 number of electron     269.9999993 magnetization      11.6807130
 augmentation part       85.9246751 magnetization       7.9193869

 Free energy of the ion-electron system (eV)
  ---------------------------------------------------
  alpha Z        PSCENC =       798.38614055
  Ewald energy   TEWEN  =    -12901.57693327
  -Hartree energ DENC   =     -2486.50267341
  -exchange      EXHF   =         0.00000000
  -V(xc)+E(xc)   XCENC  =      -999.90744301
  PAW double counting   =     20838.03320799   -19590.04360059
  entropy T*S    EENTRO =        -0.00622048
  eigenvalues    EBANDS =      1289.95376306
  atomic energy  EATOM  =     12697.67401269
  ---------------------------------------------------
  free energy    TOTEN  =      -353.98785430 eV

  energy without entropy =     -353.98163382  energy(sigma->0) =     -353.98578081


--------------------------------------------------------------------------------------------------------




--------------------------------------- Iteration      1(  15)  ---------------------------------------


    POTLOK:  cpu time    0.3949: real time    0.3948
    SETDIJ:  cpu time    0.4886: real time    0.4888
    TRIAL :  cpu time   15.6038: real time   15.6675
    CORREC:  cpu time    5.0140: real time    5.0152
    CHARGE:  cpu time    1.5304: real time    1.5886
    --------------------------------------------
      LOOP:  cpu time   23.0385: real time   23.1628

 eigenvalue-minimisations  :     0
 total energy-change (2. order) :-0.1117919E+01  (-0.6213032E+00)
 number of electron     269.9999992 magnetization      11.6674646
 augmentation part       86.6738077 magnetization       7.9512147

 Free energy of the ion-electron system (eV)
  ---------------------------------------------------
  alpha Z        PSCENC =       798.38614055
  Ewald energy   TEWEN  =    -12901.57693327
  -Hartree energ DENC   =     -2459.87351981
  -exchange      EXHF   =         0.00000000
  -V(xc)+E(xc)   XCENC  =     -1000.84537971
  PAW double counting   =     20103.51847826   -18847.24784269
  entropy T*S    EENTRO =        -0.01079533
  eigenvalues    EBANDS =      1254.86549072
  atomic energy  EATOM  =     12697.67401269
  ---------------------------------------------------
  free energy    TOTEN  =      -355.10577374 eV

  energy without entropy =     -355.09497841  energy(sigma->0) =     -355.10217530


--------------------------------------------------------------------------------------------------------




--------------------------------------- Iteration      1(  16)  ---------------------------------------


    POTLOK:  cpu time    0.3927: real time    0.4078
    SETDIJ:  cpu time    0.4548: real time    0.4550
    TRIAL :  cpu time   16.1589: real time   16.2079
    CORREC:  cpu time    5.7767: real time    5.8083
    CHARGE:  cpu time    1.5313: real time    1.5315
    --------------------------------------------
      LOOP:  cpu time   24.3192: real time   24.4159

 eigenvalue-minimisations  :     0
 total energy-change (2. order) :-0.6247731E+00  (-0.2254850E+00)
 number of electron     269.9999992 magnetization      11.7833784
 augmentation part       87.1478895 magnetization       8.0210690

 Free energy of the ion-electron system (eV)
  ---------------------------------------------------
  alpha Z        PSCENC =       798.38614055
  Ewald energy   TEWEN  =    -12901.57693327
  -Hartree energ DENC   =     -2489.00690646
  -exchange      EXHF   =         0.00000000
  -V(xc)+E(xc)   XCENC  =      -999.67988121
  PAW double counting   =     19741.97665093   -18491.29419015
  entropy T*S    EENTRO =        -0.01147762
  eigenvalues    EBANDS =      1287.80135546
  atomic energy  EATOM  =     12697.67401269
  ---------------------------------------------------
  free energy    TOTEN  =      -355.73054679 eV

  energy without entropy =     -355.71906918  energy(sigma->0) =     -355.72672092


--------------------------------------------------------------------------------------------------------




--------------------------------------- Iteration      1(  17)  ---------------------------------------


    POTLOK:  cpu time    0.3929: real time    0.3929
    SETDIJ:  cpu time    0.4797: real time    0.4797
    TRIAL :  cpu time   15.5742: real time   16.3917
    CORREC:  cpu time    5.0337: real time    5.0923
    CHARGE:  cpu time    1.5383: real time    1.5388
    --------------------------------------------
      LOOP:  cpu time   23.0227: real time   23.8999

 eigenvalue-minimisations  :     0
 total energy-change (2. order) :-0.2262088E+00  (-0.2968757E+00)
 number of electron     269.9999992 magnetization      11.7572078
 augmentation part       87.2572502 magnetization       8.1154513

 Free energy of the ion-electron system (eV)
  ---------------------------------------------------
  alpha Z        PSCENC =       798.38614055
  Ewald energy   TEWEN  =    -12901.57693327
  -Hartree energ DENC   =     -2509.99035623
  -exchange      EXHF   =         0.00000000
  -V(xc)+E(xc)   XCENC  =      -998.78255140
  PAW double counting   =     19640.87377396   -18394.69876679
  entropy T*S    EENTRO =        -0.01408510
  eigenvalues    EBANDS =      1312.16940250
  atomic energy  EATOM  =     12697.67401269
  ---------------------------------------------------
  free energy    TOTEN  =      -355.95675561 eV

  energy without entropy =     -355.94267052  energy(sigma->0) =     -355.95206058


--------------------------------------------------------------------------------------------------------




--------------------------------------- Iteration      1(  18)  ---------------------------------------


    POTLOK:  cpu time    0.3941: real time    0.3942
    SETDIJ:  cpu time    0.4547: real time    0.4546
    TRIAL :  cpu time   15.5778: real time   15.7295
    CORREC:  cpu time    5.6722: real time    5.6919
    CHARGE:  cpu time    1.5089: real time    1.5091
    --------------------------------------------
      LOOP:  cpu time   23.6267: real time   23.7991

 eigenvalue-minimisations  :     0
 total energy-change (2. order) :-0.2970002E+00  (-0.9441558E-01)
 number of electron     269.9999992 magnetization      11.8147150
 augmentation part       87.0720138 magnetization       8.1671296

 Free energy of the ion-electron system (eV)
  ---------------------------------------------------
  alpha Z        PSCENC =       798.38614055
  Ewald energy   TEWEN  =    -12901.57693327
  -Hartree energ DENC   =     -2511.74919613
  -exchange      EXHF   =         0.00000000
  -V(xc)+E(xc)   XCENC  =      -998.31123553
  PAW double counting   =     19532.43041771   -18287.17043748
  entropy T*S    EENTRO =        -0.01499211
  eigenvalues    EBANDS =      1314.07756080
  atomic energy  EATOM  =     12697.67401269
  ---------------------------------------------------
  free energy    TOTEN  =      -356.25375576 eV

  energy without entropy =     -356.23876365  energy(sigma->0) =     -356.24875839


--------------------------------------------------------------------------------------------------------




--------------------------------------- Iteration      1(  19)  ---------------------------------------


    POTLOK:  cpu time    0.3952: real time    0.3952
    SETDIJ:  cpu time    0.4774: real time    0.4774
    TRIAL :  cpu time   16.2906: real time   16.3385
    CORREC:  cpu time    5.0173: real time    5.0940
    CHARGE:  cpu time    1.6824: real time    2.3556
    --------------------------------------------
      LOOP:  cpu time   23.8650: real time   24.6629

 eigenvalue-minimisations  :     0
 total energy-change (2. order) :-0.9416611E-01  (-0.4889286E-01)
 number of electron     269.9999992 magnetization      11.8215221
 augmentation part       86.8973050 magnetization       8.1838106

 Free energy of the ion-electron system (eV)
  ---------------------------------------------------
  alpha Z        PSCENC =       798.38614055
  Ewald energy   TEWEN  =    -12901.57693327
  -Hartree energ DENC   =     -2501.56642669
  -exchange      EXHF   =         0.00000000
  -V(xc)+E(xc)   XCENC  =      -998.51708842
  PAW double counting   =     19497.08711565   -18249.84466398
  entropy T*S    EENTRO =        -0.01522873
  eigenvalues    EBANDS =      1302.02491369
  atomic energy  EATOM  =     12697.67401269
  ---------------------------------------------------
  free energy    TOTEN  =      -356.34792188 eV

  energy without entropy =     -356.33269315  energy(sigma->0) =     -356.34284563


--------------------------------------------------------------------------------------------------------




--------------------------------------- Iteration      1(  20)  ---------------------------------------


    POTLOK:  cpu time    0.3952: real time    0.3951
    SETDIJ:  cpu time    0.4846: real time    0.4846
    TRIAL :  cpu time   15.5620: real time   15.6433
    CORREC:  cpu time    5.0052: real time    5.0072
    CHARGE:  cpu time    1.5300: real time    1.5882
    --------------------------------------------
      LOOP:  cpu time   22.9913: real time   23.1338

 eigenvalue-minimisations  :     0
 total energy-change (2. order) :-0.4874929E-01  (-0.6899852E-01)
 number of electron     269.9999992 magnetization      11.8298920
 augmentation part       86.7798463 magnetization       8.2162961

 Free energy of the ion-electron system (eV)
  ---------------------------------------------------
  alpha Z        PSCENC =       798.38614055
  Ewald energy   TEWEN  =    -12901.57693327
  -Hartree energ DENC   =     -2493.48483463
  -exchange      EXHF   =         0.00000000
  -V(xc)+E(xc)   XCENC  =      -998.71904536
  PAW double counting   =     19480.58427155   -18231.61595482
  entropy T*S    EENTRO =        -0.01672380
  eigenvalues    EBANDS =      1292.37090086
  atomic energy  EATOM  =     12697.67401269
  ---------------------------------------------------
  free energy    TOTEN  =      -356.39667117 eV

  energy without entropy =     -356.37994737  energy(sigma->0) =     -356.39109657


--------------------------------------------------------------------------------------------------------




--------------------------------------- Iteration      1(  21)  ---------------------------------------


    POTLOK:  cpu time    0.3955: real time    0.3955
    SETDIJ:  cpu time    0.4476: real time    0.4580
    TRIAL :  cpu time   16.1729: real time   16.2157
    CORREC:  cpu time    4.9902: real time    5.8052
    CHARGE:  cpu time    1.5416: real time    1.5419
    --------------------------------------------
      LOOP:  cpu time   23.5507: real time   24.4213

 eigenvalue-minimisations  :     0
 total energy-change (2. order) :-0.6893760E-01  (-0.4931181E-01)
 number of electron     269.9999992 magnetization      11.8911491
 augmentation part       86.9379554 magnetization       8.2709437

 Free energy of the ion-electron system (eV)
  ---------------------------------------------------
  alpha Z        PSCENC =       798.38614055
  Ewald energy   TEWEN  =    -12901.57693327
  -Hartree energ DENC   =     -2490.21518809
  -exchange      EXHF   =         0.00000000
  -V(xc)+E(xc)   XCENC  =      -998.69644494
  PAW double counting   =     19478.28656603   -18228.57749100
  entropy T*S    EENTRO =        -0.01733098
  eigenvalues    EBANDS =      1288.27045306
  atomic energy  EATOM  =     12697.67401269
  ---------------------------------------------------
  free energy    TOTEN  =      -356.46560877 eV

  energy without entropy =     -356.44827779  energy(sigma->0) =     -356.45983178


--------------------------------------------------------------------------------------------------------




--------------------------------------- Iteration      1(  22)  ---------------------------------------


    POTLOK:  cpu time    0.3941: real time    0.3941
    SETDIJ:  cpu time    0.4748: real time    0.4748
    TRIAL :  cpu time   15.5385: real time   16.3410
    CORREC:  cpu time    5.0274: real time    5.0692
    CHARGE:  cpu time    1.5434: real time    1.5435
    --------------------------------------------
      LOOP:  cpu time   22.9851: real time   23.8303

 eigenvalue-minimisations  :     0
 total energy-change (2. order) :-0.4936327E-01  (-0.1211492E-01)
 number of electron     269.9999992 magnetization      11.8879270
 augmentation part       86.9829741 magnetization       8.2841412

 Free energy of the ion-electron system (eV)
  ---------------------------------------------------
  alpha Z        PSCENC =       798.38614055
  Ewald energy   TEWEN  =    -12901.57693327
  -Hartree energ DENC   =     -2501.06949865
  -exchange      EXHF   =         0.00000000
  -V(xc)+E(xc)   XCENC  =      -998.19959854
  PAW double counting   =     19502.54696098   -18255.07648123
  entropy T*S    EENTRO =        -0.01742438
  eigenvalues    EBANDS =      1300.81775641
  atomic energy  EATOM  =     12697.67401269
  ---------------------------------------------------
  free energy    TOTEN  =      -356.51497204 eV

  energy without entropy =     -356.49754767  energy(sigma->0) =     -356.50916392


--------------------------------------------------------------------------------------------------------




--------------------------------------- Iteration      1(  23)  ---------------------------------------


    POTLOK:  cpu time    0.3954: real time    0.3954
    SETDIJ:  cpu time    0.4544: real time    0.4543
    TRIAL :  cpu time   15.6158: real time   15.7235
    CORREC:  cpu time    5.7091: real time    5.7280
    CHARGE:  cpu time    1.5051: real time    1.5053
    --------------------------------------------
      LOOP:  cpu time   23.6867: real time   23.8135

 eigenvalue-minimisations  :     0
 total energy-change (2. order) :-0.1211979E-01  (-0.1571464E-01)
 number of electron     269.9999992 magnetization      11.9450532
 augmentation part       86.9727507 magnetization       8.3173572

 Free energy of the ion-electron system (eV)
  ---------------------------------------------------
  alpha Z        PSCENC =       798.38614055
  Ewald energy   TEWEN  =    -12901.57693327
  -Hartree energ DENC   =     -2503.83276193
  -exchange      EXHF   =         0.00000000
  -V(xc)+E(xc)   XCENC  =      -998.06290447
  PAW double counting   =     19507.04485660   -18260.14614818
  entropy T*S    EENTRO =        -0.01739050
  eigenvalues    EBANDS =      1304.00407056
  atomic energy  EATOM  =     12697.67401269
  ---------------------------------------------------
  free energy    TOTEN  =      -356.52709184 eV

  energy without entropy =     -356.50970133  energy(sigma->0) =     -356.52129500


--------------------------------------------------------------------------------------------------------




--------------------------------------- Iteration      1(  24)  ---------------------------------------


    POTLOK:  cpu time    0.3941: real time    0.3941
    SETDIJ:  cpu time    0.4695: real time    0.4694
    TRIAL :  cpu time   16.3050: real time   16.3521
    CORREC:  cpu time    5.0236: real time    5.0897
    CHARGE:  cpu time    1.8164: real time    2.4893
    --------------------------------------------
      LOOP:  cpu time   24.0256: real time   24.8132

 eigenvalue-minimisations  :     0
 total energy-change (2. order) :-0.1571478E-01  (-0.1188378E-01)
[...]
   45       -0.016  -0.015  -2.306  -2.337
   46        0.013   0.020   2.239   2.272
   47       -0.024  -0.018  -2.406  -2.448
   48       -0.019  -0.017  -2.366  -2.401
   49        0.018   0.019   2.365   2.402
   50        0.021   0.020   2.383   2.424
   51       -0.014  -0.019  -2.274  -2.307
   52        0.018   0.019   2.383   2.420
   53        0.021   0.021   2.384   2.426
   54       -0.015  -0.019  -2.295  -2.329
--------------------------------------------------
tot         -0.016  -0.064  11.972  11.893
 
    FORLOC:  cpu time    0.0524: real time    0.0646
    FORNL :  cpu time   24.1781: real time   24.3159
    STRESS:  cpu time   34.0360: real time   35.7299
    FORCOR:  cpu time    0.4424: real time    0.4424
    OFIELD:  cpu time    0.0019: real time    0.0019

  FORCE on cell =-STRESS in cart. coord.  units (eV):
  Direction    XX          YY          ZZ          XY          YZ          ZX
  --------------------------------------------------------------------------------------
  Alpha Z   798.38614   798.38614   798.38614
  Ewald   -4053.61603 -4053.61603 -4794.40593    -0.00000    -0.00000    -0.00000
  Hartree  1085.33138  1084.01571   332.00915    -0.00000    -0.00000    -0.00000
  E(xc)   -1141.86534 -1141.61787 -1139.72392    -0.00000     0.00000    -0.00000
  Local     366.34238   369.49250  1906.88900     0.00000     0.00000    -0.00000
  n-local  -170.63824  -170.17342  -175.49929     0.38218    -0.28036    -0.26039
  augment   785.48269   784.47100   767.04139     0.00000     0.00001     0.00001
  Kinetic  2337.30317  2334.89128  2307.52783    -2.53609    -1.36539    -1.53438
  Fock        0.00000     0.00000     0.00000     0.00000     0.00000     0.00000
  -------------------------------------------------------------------------------------
  Total       6.72616     5.84931     2.22437     0.00000     0.00000     0.00000
  in kB      15.18006    13.20114     5.02011     0.00000     0.00000     0.00000
  external pressure =       11.13 kB  Pullay stress =        0.00 kB


 VOLUME and BASIS-vectors are now :
 -----------------------------------------------------------------------------
  energy-cutoff  :      404.80
  volume of cell :      709.91
      direct lattice vectors                 reciprocal lattice vectors
     8.250148166  0.000000000  0.000000000     0.121209944  0.000000000  0.000000000
     0.000000000  8.250148166  0.000000000     0.000000000  0.121209944  0.000000000
     0.000000000  0.000000000 10.429911392     0.000000000  0.000000000  0.095878092

  length of vectors
     8.250148166  8.250148166 10.429911392     0.121209944  0.121209944  0.095878092


 FORCES acting on ions:
    Electron-Ion                     Ewald-Force                    Non-Local-Force
 -----------------------------------------------------------------------------------------------
   -.255E-10 -.906E-02 0.393E-01   -.239E-08 -.239E-08 -.210E-08   0.000E+00 0.999E-02 -.213E-01
   -.254E-10 0.825E-01 -.148E-01   -.239E-08 -.239E-08 0.171E-08   0.000E+00 -.556E-01 -.522E-01
   -.255E-10 -.722E-01 0.510E-01   -.239E-08 -.239E-08 0.861E-08   0.000E+00 0.166E+00 0.994E-02
   -.255E-10 0.906E-02 0.393E-01   -.239E-08 -.802E-09 -.210E-08   0.000E+00 -.999E-02 -.213E-01
   -.254E-10 -.825E-01 -.148E-01   -.239E-08 -.802E-09 0.171E-08   0.000E+00 0.556E-01 -.522E-01
   -.255E-10 0.722E-01 0.510E-01   -.239E-08 -.802E-09 0.861E-08   0.000E+00 -.166E+00 0.994E-02
   -.255E-10 -.329E-08 -.182E+00   -.239E-08 0.631E-08 -.210E-08   0.000E+00 0.000E+00 0.753E-01
   -.254E-10 -.327E-08 -.636E-02   -.239E-08 0.631E-08 0.171E-08   0.000E+00 0.000E+00 0.404E-01
   -.255E-10 -.328E-08 0.415E-01   -.239E-08 0.631E-08 0.861E-08   0.000E+00 0.000E+00 -.178E-01
   0.109E-01 -.189E-03 -.576E-01   -.802E-09 -.239E-08 -.210E-08   -.921E-02 0.973E-02 0.198E-01
   0.594E-01 -.228E-01 -.299E-01   -.802E-09 -.239E-08 0.171E-08   0.234E-01 -.166E-01 -.155E-02
   0.134E+00 -.101E+00 0.125E+00   -.803E-09 -.239E-08 0.861E-08   -.643E-01 0.817E-01 -.415E-01
   0.109E-01 0.189E-03 -.576E-01   -.802E-09 -.802E-09 -.210E-08   -.921E-02 -.973E-02 0.198E-01
   0.594E-01 0.228E-01 -.299E-01   -.802E-09 -.802E-09 0.171E-08   0.234E-01 0.166E-01 -.155E-02
   0.134E+00 0.101E+00 0.125E+00   -.803E-09 -.802E-09 0.861E-08   -.643E-01 -.817E-01 -.415E-01
   0.548E-02 -.329E-08 -.114E+00   -.802E-09 0.631E-08 -.210E-08   -.595E-02 0.000E+00 0.647E-01
   -.196E-01 -.328E-08 -.169E-01   -.802E-09 0.631E-08 0.171E-08   -.805E-02 0.271E-19 0.634E-01
   -.264E-01 -.329E-08 0.618E-01   -.803E-09 0.631E-08 0.861E-08   0.149E-01 0.000E+00 -.658E-01
   -.109E-01 -.189E-03 -.576E-01   0.631E-08 -.239E-08 -.210E-08   0.921E-02 0.973E-02 0.198E-01
   -.594E-01 -.228E-01 -.299E-01   0.631E-08 -.239E-08 0.171E-08   -.234E-01 -.166E-01 -.155E-02
   -.134E+00 -.101E+00 0.125E+00   0.631E-08 -.239E-08 0.861E-08   0.643E-01 0.817E-01 -.415E-01
   -.109E-01 0.189E-03 -.576E-01   0.631E-08 -.802E-09 -.210E-08   0.921E-02 -.973E-02 0.198E-01
   -.594E-01 0.228E-01 -.299E-01   0.631E-08 -.802E-09 0.171E-08   -.234E-01 0.166E-01 -.155E-02
   -.134E+00 0.101E+00 0.125E+00   0.631E-08 -.802E-09 0.861E-08   0.643E-01 -.817E-01 -.415E-01
   -.548E-02 -.329E-08 -.114E+00   0.631E-08 0.631E-08 -.210E-08   0.595E-02 0.813E-19 0.647E-01
   0.196E-01 -.328E-08 -.169E-01   0.631E-08 0.631E-08 0.171E-08   0.805E-02 0.000E+00 0.634E-01
   0.264E-01 -.329E-08 0.618E-01   0.631E-08 0.631E-08 0.861E-08   -.149E-01 0.000E+00 -.658E-01
   -.100E+00 0.485E-08 -.167E+00   -.169E-07 -.169E-07 -.180E-07   0.226E-01 0.000E+00 0.127E+00
   -.552E+00 0.478E-08 0.239E+00   -.169E-07 -.169E-07 -.170E-08   0.237E+00 0.000E+00 -.214E+00
   0.981E-02 0.483E-08 -.209E+00   -.169E-07 -.169E-07 0.115E-07   0.357E-01 0.000E+00 0.345E+00
   -.135E-01 -.425E-01 0.346E-01   -.169E-07 0.802E-09 -.180E-07   0.350E-01 0.262E-01 -.999E-01
   0.273E-01 0.273E+00 -.623E-01   -.169E-07 0.802E-09 -.170E-08   -.622E-02 -.972E-01 0.967E-01
   -.304E-01 0.499E-01 0.119E+00   -.169E-07 0.802E-09 0.115E-07   -.519E-03 -.104E-01 -.122E+00
   -.135E-01 0.425E-01 0.346E-01   -.169E-07 0.130E-07 -.180E-07   0.350E-01 -.262E-01 -.999E-01
   0.273E-01 -.273E+00 -.623E-01   -.169E-07 0.130E-07 -.170E-08   -.622E-02 0.972E-01 0.967E-01
   -.304E-01 -.499E-01 0.119E+00   -.169E-07 0.130E-07 0.115E-07   -.519E-03 0.104E-01 -.122E+00
   0.864E-11 0.483E-08 0.805E-01   0.802E-09 -.169E-07 -.180E-07   0.000E+00 0.000E+00 -.114E+00
   0.874E-11 0.489E-08 -.157E+00   0.802E-09 -.169E-07 -.170E-08   0.000E+00 0.000E+00 0.110E+00
   0.876E-11 0.488E-08 0.294E+00   0.802E-09 -.169E-07 0.115E-07   0.000E+00 0.000E+00 -.356E+00
   0.867E-11 -.742E-01 -.453E-01   0.802E-09 0.802E-09 -.180E-07   0.000E+00 0.126E+00 -.271E-01
   0.872E-11 -.214E+00 0.175E-01   0.802E-09 0.802E-09 -.170E-08   0.000E+00 0.218E+00 0.601E-01
   0.871E-11 -.602E-01 -.330E-01   0.802E-09 0.802E-09 0.115E-07   0.000E+00 0.211E-01 0.318E-01
   0.867E-11 0.742E-01 -.453E-01   0.802E-09 0.130E-07 -.180E-07   0.000E+00 -.126E+00 -.271E-01
   0.872E-11 0.214E+00 0.175E-01   0.802E-09 0.130E-07 -.170E-08   0.000E+00 -.218E+00 0.601E-01
   0.871E-11 0.602E-01 -.330E-01   0.802E-09 0.130E-07 0.115E-07   0.000E+00 -.211E-01 0.318E-01
   0.100E+00 0.485E-08 -.167E+00   0.130E-07 -.169E-07 -.180E-07   -.226E-01 0.000E+00 0.127E+00
   0.552E+00 0.477E-08 0.239E+00   0.130E-07 -.169E-07 -.170E-08   -.237E+00 0.000E+00 -.214E+00
   -.981E-02 0.482E-08 -.209E+00   0.130E-07 -.169E-07 0.115E-07   -.357E-01 0.000E+00 0.345E+00
   0.135E-01 -.425E-01 0.346E-01   0.130E-07 0.802E-09 -.180E-07   -.350E-01 0.262E-01 -.999E-01
   -.273E-01 0.273E+00 -.623E-01   0.130E-07 0.802E-09 -.170E-08   0.622E-02 -.972E-01 0.967E-01
   0.304E-01 0.499E-01 0.119E+00   0.130E-07 0.802E-09 0.115E-07   0.519E-03 -.104E-01 -.122E+00
   0.135E-01 0.425E-01 0.346E-01   0.130E-07 0.130E-07 -.180E-07   -.350E-01 -.262E-01 -.999E-01
   -.273E-01 -.273E+00 -.623E-01   0.130E-07 0.130E-07 -.170E-08   0.622E-02 0.972E-01 0.967E-01
   0.304E-01 -.499E-01 0.119E+00   0.130E-07 0.130E-07 0.115E-07   0.519E-03 0.104E-01 -.122E+00
 -----------------------------------------------------------------------------------------------
   -.449E-07 -.405E-07 0.212E+00   -.614E-13 -.142E-13 0.128E-13   -.243E-16 -.694E-17 -.212E+00
 
 
 POSITION                                       TOTAL-FORCE (eV/Angst)
 -----------------------------------------------------------------------------------
      0.00000      0.00000      0.00000        -0.000000      0.000116      0.020592
      0.00000      0.00000      3.47664        -0.000000      0.032329     -0.061001
      0.00000      0.00000      6.95327        -0.000000      0.079518      0.058751
      0.00000      2.75005      0.00000        -0.000000     -0.000116      0.020592
      0.00000      2.75005      3.47664        -0.000000     -0.032329     -0.061001
      0.00000      2.75005      6.95327        -0.000000     -0.079518      0.058751
      0.00000      5.50010      0.00000        -0.000000      0.000000     -0.114986
      0.00000      5.50010      3.47664        -0.000000      0.000000      0.031188
      0.00000      5.50010      6.95327        -0.000000      0.000000      0.024620
      2.75005      0.00000      0.00000         0.002551      0.008818     -0.039820
      2.75005      0.00000      3.47664         0.080514     -0.037487     -0.030102
      2.75005      0.00000      6.95327         0.075188     -0.026402      0.086015
      2.75005      2.75005      0.00000         0.002551     -0.008818     -0.039820
      2.75005      2.75005      3.47664         0.080514      0.037487     -0.030102
      2.75005      2.75005      6.95327         0.075188      0.026402      0.086015
      2.75005      5.50010      0.00000        -0.000055      0.000000     -0.055175
      2.75005      5.50010      3.47664        -0.027339      0.000000      0.041507
      2.75005      5.50010      6.95327        -0.013190      0.000000      0.001372
      5.50010      0.00000      0.00000        -0.002551      0.008818     -0.039820
      5.50010      0.00000      3.47664        -0.080514     -0.037487     -0.030102
      5.50010      0.00000      6.95327        -0.075188     -0.026402      0.086015
      5.50010      2.75005      0.00000        -0.002551     -0.008818     -0.039820
      5.50010      2.75005      3.47664        -0.080514      0.037487     -0.030102
      5.50010      2.75005      6.95327        -0.075188      0.026402      0.086015
      5.50010      5.50010      0.00000         0.000055      0.000000     -0.055175
      5.50010      5.50010      3.47664         0.027339      0.000000      0.041507
      5.50010      5.50010      6.95327         0.013190      0.000000      0.001372
      1.37502      1.37502      1.73832        -0.077106      0.000000     -0.041460
      1.37502      1.37502      5.21496        -0.324072      0.000000      0.029767
      1.37502      1.37502      8.69159         0.043511      0.000000      0.127426
      1.37502      4.12507      1.73832         0.021220     -0.014105     -0.056854
      1.37502      4.12507      5.21496         0.021728      0.178204      0.028541
      1.37502      4.12507      8.69159        -0.031161      0.039027     -0.001305
      1.37502      6.87512      1.73832         0.021220      0.014105     -0.056854
      1.37502      6.87512      5.21496         0.021728     -0.178204      0.028541
      1.37502      6.87512      8.69159        -0.031161     -0.039027     -0.001305
      4.12507      1.37502      1.73832        -0.000000      0.000000     -0.026248
      4.12507      1.37502      5.21496        -0.000000      0.000000     -0.050441
      4.12507      1.37502      8.69159        -0.000000      0.000000     -0.055327
      4.12507      4.12507      1.73832        -0.000000      0.050399     -0.064698
      4.12507      4.12507      5.21496        -0.000000      0.001014      0.069979
      4.12507      4.12507      8.69159        -0.000000     -0.039617     -0.004414
      4.12507      6.87512      1.73832        -0.000000     -0.050399     -0.064698
      4.12507      6.87512      5.21496        -0.000000     -0.001014      0.069979
      4.12507      6.87512      8.69159        -0.000000      0.039617     -0.004414
      6.87512      1.37502      1.73832         0.077106      0.000000     -0.041460
      6.87512      1.37502      5.21496         0.324072      0.000000      0.029767
      6.87512      1.37502      8.69159        -0.043511      0.000000      0.127426
      6.87512      4.12507      1.73832        -0.021220     -0.014105     -0.056854
      6.87512      4.12507      5.21496        -0.021728      0.178204      0.028541
      6.87512      4.12507      8.69159         0.031161      0.039027     -0.001305
      6.87512      6.87512      1.73832        -0.021220      0.014105     -0.056854
      6.87512      6.87512      5.21496        -0.021728     -0.178204      0.028541
      6.87512      6.87512      8.69159         0.031161     -0.039027     -0.001305
 -----------------------------------------------------------------------------------
    total drift:                               -0.000000     -0.000000     -0.000043


--------------------------------------------------------------------------------------------------------



  FREE ENERGIE OF THE ION-ELECTRON SYSTEM (eV)
  ---------------------------------------------------
  free  energy   TOTEN  =      -356.58703970 eV

  energy  without entropy=     -356.57139815  energy(sigma->0) =     -356.58182585
 


--------------------------------------------------------------------------------------------------------


    POTLOK:  cpu time    0.9217: real time    0.9389


--------------------------------------------------------------------------------------------------------


     LOOP+:  cpu time 1667.3534: real time 1704.6275
    4ORBIT:  cpu time    0.0000: real time    0.0000
 


 total charge     
 
# of ion       s       p       d       tot
------------------------------------------
    1        0.405   0.427   0.000   0.832
    2        0.405   0.429   0.000   0.834
    3        0.405   0.429   0.000   0.834
    4        0.405   0.427   0.000   0.833
    5        0.405   0.429   0.000   0.834
    6        0.405   0.428   0.000   0.834
    7        0.405   0.427   0.000   0.832
    8        0.404   0.427   0.000   0.832
    9        0.405   0.426   0.000   0.831
   10        0.405   0.427   0.000   0.832
   11        0.404   0.430   0.000   0.834
   12        0.405   0.428   0.000   0.833
   13        0.405   0.427   0.000   0.832
   14        0.404   0.430   0.000   0.834
   15        0.405   0.428   0.000   0.833
   16        0.405   0.428   0.000   0.833
   17        0.404   0.428   0.000   0.832
   18        0.405   0.426   0.000   0.831
   19        0.405   0.427   0.000   0.832
   20        0.405   0.430   0.000   0.834
   21        0.405   0.428   0.000   0.834
   22        0.405   0.427   0.000   0.832
   23        0.404   0.429   0.000   0.834
   24        0.405   0.428   0.000   0.834
   25        0.405   0.428   0.000   0.833
   26        0.404   0.428   0.000   0.832
   27        0.405   0.426   0.000   0.831
   28        0.331   0.352   5.143   5.826
   29        0.334   0.355   5.128   5.817
   30        0.335   0.349   5.139   5.823
   31        0.333   0.350   5.145   5.828
   32        0.334   0.355   5.133   5.822
   33        0.334   0.352   5.142   5.827
   34        0.333   0.351   5.130   5.815
   35        0.333   0.355   5.127   5.815
   36        0.334   0.352   5.128   5.813
   37        0.334   0.349   5.138   5.820
   38        0.331   0.358   5.131   5.821
   39        0.334   0.353   5.131   5.819
   40        0.334   0.352   5.137   5.823
   41        0.331   0.353   5.137   5.821
   42        0.335   0.350   5.141   5.826
   43        0.334   0.352   5.131   5.818
   44        0.331   0.353   5.139   5.823
   45        0.335   0.350   5.132   5.817
   46        0.331   0.353   5.129   5.813
   47        0.334   0.355   5.128   5.817
   48        0.335   0.350   5.136   5.820
   49        0.333   0.350   5.141   5.825
   50        0.333   0.354   5.126   5.814
   51        0.334   0.352   5.141   5.826
   52        0.333   0.351   5.130   5.814
   53        0.333   0.355   5.133   5.822
   54        0.333   0.352   5.127   5.813
--------------------------------------------------
tot         19.936  21.064 138.625 179.625
 


 magnetization (x)
 
# of ion       s       p       d       tot
------------------------------------------
    1       -0.000   0.002   0.000   0.002
    2       -0.012  -0.020   0.000  -0.032
    3        0.010   0.019   0.000   0.028
    4       -0.000   0.002   0.000   0.002
    5       -0.012  -0.021   0.000  -0.033
    6        0.009   0.020   0.000   0.029
    7        0.000  -0.002   0.000  -0.002
    8       -0.021  -0.035   0.000  -0.056
    9        0.002   0.005   0.000   0.006
   10        0.000   0.000   0.000   0.000
   11       -0.017  -0.029   0.000  -0.046
   12        0.005   0.010   0.000   0.015
   13       -0.000   0.000   0.000   0.000
   14       -0.016  -0.030   0.000  -0.046
   15        0.005   0.011   0.000   0.016
   16       -0.000   0.001   0.000   0.001
   17       -0.022  -0.037   0.000  -0.059
   18        0.000   0.002   0.000   0.002
   19        0.000   0.000   0.000   0.000
   20       -0.017  -0.029   0.000  -0.045
   21        0.005   0.009   0.000   0.014
   22       -0.000   0.000   0.000   0.000
   23       -0.017  -0.029   0.000  -0.046
   24        0.005   0.010   0.000   0.015
   25       -0.000   0.001   0.000   0.000
   26       -0.022  -0.037   0.000  -0.059
   27        0.000   0.002   0.000   0.002
   28        0.013   0.020   2.222   2.255
   29       -0.024  -0.018  -2.406  -2.448
   30       -0.019  -0.017  -2.357  -2.392
   31        0.018   0.019   2.363   2.400
   32        0.021   0.021   2.384   2.426
   33       -0.014  -0.019  -2.271  -2.304
   34        0.018   0.018   2.380   2.417
   35        0.021   0.021   2.379   2.420
   36       -0.014  -0.019  -2.288  -2.321
   37        0.020   0.015   2.401   2.437
   38        0.030   0.032   2.236   2.297
   39       -0.013  -0.023  -2.266  -2.301
   40        0.016   0.023   2.362   2.401
   41        0.010   0.009   2.328   2.347
   42       -0.016  -0.015  -2.296  -2.327
   43        0.016   0.023   2.370   2.409
   44        0.010   0.009   2.327   2.346
   45       -0.016  -0.015  -2.306  -2.337
   46        0.013   0.020   2.239   2.272
   47       -0.024  -0.018  -2.406  -2.448
   48       -0.019  -0.017  -2.366  -2.401
   49        0.018   0.019   2.365   2.402
   50        0.021   0.020   2.383   2.424
   51       -0.014  -0.019  -2.274  -2.307
   52        0.018   0.019   2.383   2.420
   53        0.021   0.021   2.384   2.426
   54       -0.015  -0.019  -2.295  -2.329
--------------------------------------------------
tot         -0.016  -0.064  11.972  11.893
 

 total amount of memory used by VASP MPI-rank0   887625. kBytes
=======================================================================

   base      :      30000. kBytes
   nonl-proj :      28494. kBytes
   fftplans  :      31580. kBytes
   grid      :      21385. kBytes
   one-center:        435. kBytes
   wavefun   :     775731. kBytes
 
  
  
 General timing and accounting informations for this job:
 ========================================================
  
                  Total CPU time used (sec):     1700.473
                            User time (sec):     1675.489
                          System time (sec):       24.984
                         Elapsed time (sec):     1740.299
  
                   Maximum memory used (kb):     1057340.
                   Average memory used (kb):           0.
  
                          Minor page faults:       570490
                          Major page faults:           14
                 Voluntary context switches:         2752
