 vasp.5.4.4.18Apr17-6-g9f103f2a35 (build Dec 20 2018 12:05:58) complex          
  
 executed on             LinuxIFC date 2019.06.21  00:40:21
 running on   32 total cores
 distrk:  each k-point on    8 cores,    4 groups
 distr:  one band on NCORES_PER_BAND=   4 cores,    2 groups


--------------------------------------------------------------------------------------------------------


 INCAR:
 POTCAR:    PAW_PBE Al 04Jan2001                  
 POTCAR:    PAW_PBE Mn 06Sep2000                  

 ----------------------------------------------------------------------------- 
|                                                                             |
|           W    W    AA    RRRRR   N    N  II  N    N   GGGG   !!!           |
|           W    W   A  A   R    R  NN   N  II  NN   N  G    G  !!!           |
|           W    W  A    A  R    R  N N  N  II  N N  N  G       !!!           |
|           W WW W  AAAAAA  RRRRR   N  N N  II  N  N N  G  GGG   !            |
|           WW  WW  A    A  R   R   N   NN  II  N   NN  G    G                |
|           W    W  A    A  R    R  N    N  II  N    N   GGGG   !!!           |
|                                                                             |
|      You have enabled k-point parallelism (KPAR>1).                         |
|      This developmental code was originally  written by Paul Kent at ORNL,  |
|      and carefully double checked in Vienna.                                |
|      GW as well as linear response parallelism added by Martijn Marsman     |
|      and Georg Kresse.                                                      |
|      Carefully verify results versus KPAR=1.                                |
|      Report problems to Paul Kent and Vienna.                               |
|                                                                             |
 ----------------------------------------------------------------------------- 

 POTCAR:    PAW_PBE Al 04Jan2001                  
   VRHFIN =Al: s2p1                                                             
   LEXCH  = PE                                                                  
   EATOM  =    53.5387 eV,    3.9350 Ry                                         
                                                                                
   TITEL  = PAW_PBE Al 04Jan2001                                                
   LULTRA =        F    use ultrasoft PP ?                                      
   IUNSCR =        1    unscreen: 0-lin 1-nonlin 2-no                           
   RPACOR =    1.500    partial core radius                                     
   POMASS =   26.981; ZVAL   =    3.000    mass and valenz                      
   RCORE  =    1.900    outmost cutoff radius                                   
   RWIGS  =    2.650; RWIGS  =    1.402    wigner-seitz radius (au A)           
   ENMAX  =  240.300; ENMIN  =  180.225 eV                                      
   ICORE  =        2    local potential                                         
   LCOR   =        T    correct aug charges                                     
   LPAW   =        T    paw PP                                                  
   EAUG   =  291.052                                                            
   DEXC   =    0.000                                                            
   RMAX   =    1.939    core radius for proj-oper                               
   RAUG   =    1.300    factor for augmentation sphere                          
   RDEP   =    1.966    radius for radial grids                                 
   RDEPT  =    1.856    core radius for aug-charge                              
                                                                                
   Atomic configuration                                                         
    6 entries                                                                   
     n  l   j            E        occ.                                          
     1  0  0.50     -1511.1048   2.0000                                         
     2  0  0.50      -108.1629   2.0000                                         
     2  1  1.50       -69.6402   6.0000                                         
     3  0  0.50        -7.7528   2.0000                                         
     3  1  1.50        -2.7121   1.0000                                         
     3  2  2.50        -2.7212   0.0000                                         
   Description                                                                  
     l       E           TYP  RCUT    TYP  RCUT                                 
     0     -7.7528455     23  1.900                                             
     0     -3.3096929     23  1.900                                             
     1     -2.7120682     23  1.900                                             
     1     13.6058260     23  1.900                                             
     2     -2.7211652      7  1.900                                             
  local pseudopotential read in
  partial core-charges read in
  partial kinetic energy density read in
  atomic valenz-charges read in
  non local Contribution for L=           0  read in
    real space projection operators read in
  non local Contribution for L=           0  read in
    real space projection operators read in
  non local Contribution for L=           1  read in
    real space projection operators read in
  non local Contribution for L=           1  read in
    real space projection operators read in
    PAW grid and wavefunctions read in
 
   number of l-projection  operators is LMAX  =           4
   number of lm-projection operators is LMMAX =           8
 
 POTCAR:    PAW_PBE Mn 06Sep2000                  
   VRHFIN =Mn: d6 s1                                                            
   LEXCH  = PE                                                                  
   EATOM  =   416.7541 eV,   30.6306 Ry                                         
                                                                                
   TITEL  = PAW_PBE Mn 06Sep2000                                                
   LULTRA =        F    use ultrasoft PP ?                                      
   IUNSCR =        1    unscreen: 0-lin 1-nonlin 2-no                           
   RPACOR =    2.000    partial core radius                                     
   POMASS =   54.938; ZVAL   =    7.000    mass and valenz                      
   RCORE  =    2.300    outmost cutoff radius                                   
   RWIGS  =    2.500; RWIGS  =    1.323    wigner-seitz radius (au A)           
   ENMAX  =  269.864; ENMIN  =  202.398 eV                                      
   RCLOC  =    1.725    cutoff for local pot                                    
   LCOR   =        T    correct aug charges                                     
   LPAW   =        T    paw PP                                                  
   EAUG   =  500.711                                                            
   DEXC   =    0.000                                                            
   RMAX   =    2.343    core radius for proj-oper                               
   RAUG   =    1.300    factor for augmentation sphere                          
   RDEP   =    2.338    radius for radial grids                                 
   RDEPT  =    1.911    core radius for aug-charge                              
                                                                                
   Atomic configuration                                                         
    9 entries                                                                   
     n  l   j            E        occ.                                          
     1  0  0.50     -6424.8288   2.0000                                         
     2  0  0.50      -739.1154   2.0000                                         
     2  1  1.50      -625.3949   6.0000                                         
     3  0  0.50       -81.6100   2.0000                                         
     3  1  1.50       -50.4667   6.0000                                         
     3  2  2.50        -3.3745   6.0000                                         
     4  0  0.50        -4.1331   1.0000                                         
     4  1  0.50        -4.0817   0.0000                                         
     4  3  2.50        -1.3606   0.0000                                         
   Description                                                                  
     l       E           TYP  RCUT    TYP  RCUT                                 
     2     -3.3744664     23  2.300                                             
     2     -4.7350490     23  2.300                                             
     0     -4.1331408     23  2.300                                             
     0      7.6656614     23  2.300                                             
     1     -2.7211652     23  2.300                                             
     1     20.4087390     23  2.300                                             
  local pseudopotential read in
  partial core-charges read in
  partial kinetic energy density read in
  atomic valenz-charges read in
  non local Contribution for L=           2  read in
    real space projection operators read in
  non local Contribution for L=           2  read in
    real space projection operators read in
  non local Contribution for L=           0  read in
    real space projection operators read in
  non local Contribution for L=           0  read in
    real space projection operators read in
  non local Contribution for L=           1  read in
    real space projection operators read in
  non local Contribution for L=           1  read in
    real space projection operators read in
    PAW grid and wavefunctions read in
 
   number of l-projection  operators is LMAX  =           6
   number of lm-projection operators is LMMAX =          18
 

 ----------------------------------------------------------------------------- 
|                                                                             |
|  ADVICE TO THIS USER RUNNING 'VASP/VAMP'   (HEAR YOUR MASTER'S VOICE ...):  |
|                                                                             |
|      You have a (more or less) 'large supercell' and for larger cells       |
|      it might be more efficient to use real space projection opertators     |
|      So try LREAL= Auto  in the INCAR   file.                               |
|      Mind:          For very  accurate calculation you might also keep the  |
|      reciprocal projection scheme          (i.e. LREAL=.FALSE.)             |
|                                                                             |
 ----------------------------------------------------------------------------- 

  PAW_PBE Al 04Jan2001                  :
 energy of atom  1       EATOM=  -53.5387
 kinetic energy error for atom=    0.0005 (will be added to EATOM!!)
  PAW_PBE Mn 06Sep2000                  :
 energy of atom  2       EATOM= -416.7541
 kinetic energy error for atom=    0.0080 (will be added to EATOM!!)
 
 
 POSCAR: NewRef: 27, @ ['Mn', array([1.37502469, 
  positions in cartesian coordinates
  velocities in cartesian coordinates
  No initial velocities read in
 exchange correlation table for  LEXCH =        8
   RHO(1)=    0.500       N(1)  =     2000
   RHO(2)=  100.500       N(2)  =     4000
 


--------------------------------------------------------------------------------------------------------


 ion  position               nearest neighbor table
   1  0.000  0.000  0.000-  28 2.61  30 2.61  34 2.61  36 2.61  46 2.61  48 2.61  52 2.61  54 2.61
                             4 2.75  10 2.75   7 2.75  19 2.75
   2  0.000  0.000  0.333-  28 2.61  34 2.61  46 2.61  52 2.61  29 2.61  47 2.61  35 2.61  53 2.61
                             5 2.75  11 2.75   8 2.75  20 2.75
   3  0.000  0.000  0.667-  29 2.61  35 2.61  47 2.61  53 2.61  30 2.61  48 2.61  36 2.61  54 2.61
                             6 2.75  12 2.75   9 2.75  21 2.75
   4  0.000  0.333  0.000-  28 2.61  30 2.61  46 2.61  48 2.61  31 2.61  33 2.61  49 2.61  51 2.61
                            13 2.75   1 2.75   7 2.75  22 2.75
   5  0.000  0.333  0.333-  28 2.61  46 2.61  31 2.61  49 2.61  47 2.61  29 2.61  32 2.61  50 2.61
                            14 2.75   2 2.75   8 2.75  23 2.75
   6  0.000  0.333  0.667-  29 2.61  47 2.61  32 2.61  50 2.61  48 2.61  30 2.61  33 2.61  51 2.61
                            15 2.75   3 2.75   9 2.75  24 2.75
   7  0.000  0.667  0.000-  31 2.61  33 2.61  49 2.61  51 2.61  34 2.61  36 2.61  52 2.61  54 2.61
                             4 2.75  16 2.75   1 2.75  25 2.75
   8  0.000  0.667  0.333-  31 2.61  49 2.61  34 2.61  52 2.61  50 2.61  32 2.61  35 2.61  53 2.61
                             5 2.75  17 2.75   2 2.75  26 2.75
   9  0.000  0.667  0.667-  32 2.61  50 2.61  35 2.61  53 2.61  51 2.61  33 2.61  36 2.61  54 2.61
                             6 2.75  18 2.75   3 2.75  27 2.75
  10  0.333  0.000  0.000-  28 2.61  30 2.61  34 2.61  36 2.61  37 2.61  39 2.61  43 2.61  45 2.61
                            19 2.75   1 2.75  13 2.75  16 2.75
  11  0.333  0.000  0.333-  28 2.61  34 2.61  37 2.61  43 2.61  29 2.61  35 2.61  38 2.61  44 2.61
                            20 2.75   2 2.75  14 2.75  17 2.75
  12  0.333  0.000  0.667-  29 2.61  35 2.61  38 2.61  44 2.61  30 2.61  36 2.61  39 2.61  45 2.61
                            21 2.75   3 2.75  15 2.75  18 2.75
  13  0.333  0.333  0.000-  28 2.61  30 2.61  31 2.61  33 2.61  37 2.61  39 2.61  40 2.61  42 2.61
                             4 2.75  10 2.75  16 2.75  22 2.75
  14  0.333  0.333  0.333-  28 2.61  31 2.61  37 2.61  29 2.61  40 2.61  38 2.61  32 2.61  41 2.61
                             5 2.75  11 2.75  17 2.75  23 2.75
  15  0.333  0.333  0.667-  29 2.61  32 2.61  38 2.61  30 2.61  41 2.61  39 2.61  33 2.61  42 2.61
                             6 2.75  12 2.75  18 2.75  24 2.75
  16  0.333  0.667  0.000-  31 2.61  33 2.61  34 2.61  36 2.61  40 2.61  42 2.61  43 2.61  45 2.61
                            25 2.75   7 2.75  13 2.75  10 2.75
  17  0.333  0.667  0.333-  31 2.61  34 2.61  40 2.61  32 2.61  43 2.61  41 2.61  35 2.61  44 2.61
                            26 2.75   8 2.75  14 2.75  11 2.75
  18  0.333  0.667  0.667-  32 2.61  35 2.61  41 2.61  33 2.61  44 2.61  42 2.61  36 2.61  45 2.61
                            27 2.75   9 2.75  15 2.75  12 2.75
  19  0.667  0.000  0.000-  37 2.61  39 2.61  43 2.61  45 2.61  46 2.61  48 2.61  52 2.61  54 2.61
                            10 2.75  22 2.75   1 2.75  25 2.75
  20  0.667  0.000  0.333-  37 2.61  43 2.61  46 2.61  52 2.61  38 2.61  44 2.61  47 2.61  53 2.61
                            11 2.75  23 2.75   2 2.75  26 2.75
  21  0.667  0.000  0.667-  38 2.61  44 2.61  47 2.61  53 2.61  39 2.61  45 2.61  48 2.61  54 2.61
                            12 2.75  24 2.75   3 2.75  27 2.75
  22  0.667  0.333  0.000-  37 2.61  39 2.61  40 2.61  42 2.61  46 2.61  48 2.61  49 2.61  51 2.61
                            25 2.75  13 2.75  19 2.75   4 2.75
  23  0.667  0.333  0.333-  37 2.61  40 2.61  46 2.61  38 2.61  49 2.61  47 2.61  41 2.61  50 2.61
                            26 2.75  14 2.75  20 2.75   5 2.75
  24  0.667  0.333  0.667-  38 2.61  41 2.61  47 2.61  39 2.61  50 2.61  48 2.61  42 2.61  51 2.61
                            27 2.75  15 2.75  21 2.75   6 2.75
  25  0.667  0.667  0.000-  40 2.61  42 2.61  43 2.61  45 2.61  49 2.61  51 2.61  52 2.61  54 2.61
                            16 2.75  22 2.75  19 2.75   7 2.75
  26  0.667  0.667  0.333-  40 2.61  43 2.61  49 2.61  41 2.61  52 2.61  50 2.61  44 2.61  53 2.61
                            17 2.75  23 2.75  20 2.75   8 2.75
  27  0.667  0.667  0.667-  41 2.61  44 2.61  50 2.61  42 2.61  53 2.61  51 2.61  45 2.61  54 2.61
                            18 2.75  24 2.75  21 2.75   9 2.75
  28  0.167  0.167  0.167-  14 2.61  11 2.61   5 2.61  13 2.61   2 2.61  10 2.61   4 2.61   1 2.61
                            31 2.75  37 2.75  34 2.75  46 2.75
  29  0.167  0.167  0.500-  15 2.61  12 2.61   6 2.61  14 2.61   3 2.61  11 2.61   5 2.61   2 2.61
                            32 2.75  38 2.75  35 2.75  47 2.75
  30  0.167  0.167  0.833-  13 2.61  15 2.61  10 2.61  12 2.61   4 2.61   6 2.61   1 2.61   3 2.61
                            33 2.75  39 2.75  36 2.75  48 2.75
  31  0.167  0.500  0.167-  17 2.61  14 2.61   8 2.61  16 2.61   5 2.61  13 2.61   7 2.61   4 2.61
                            28 2.75  34 2.75  40 2.75  49 2.75
  32  0.167  0.500  0.500-  18 2.61  15 2.61   9 2.61  17 2.61   6 2.61  14 2.61   8 2.61   5 2.61
                            29 2.75  35 2.75  41 2.75  50 2.75
  33  0.167  0.500  0.833-  16 2.61  18 2.61  13 2.61  15 2.61   7 2.61   9 2.61   4 2.61   6 2.61
                            30 2.75  36 2.75  42 2.75  51 2.75
  34  0.167  0.833  0.167-  11 2.61  17 2.61   2 2.61   8 2.61  16 2.61  10 2.61   7 2.61   1 2.61
                            31 2.75  43 2.75  28 2.75  52 2.75
  35  0.167  0.833  0.500-  12 2.61  18 2.61   3 2.61   9 2.61  17 2.61  11 2.61   8 2.61   2 2.61
                            32 2.75  44 2.75  29 2.75  53 2.75
  36  0.167  0.833  0.833-  10 2.61  12 2.61  16 2.61  18 2.61   1 2.61   3 2.61   7 2.61   9 2.61
                            33 2.75  45 2.75  30 2.75  54 2.75
  37  0.500  0.167  0.167-  23 2.61  20 2.61  14 2.61  22 2.61  11 2.61  19 2.61  13 2.61  10 2.61
                            28 2.75  40 2.75  46 2.75  43 2.75
  38  0.500  0.167  0.500-  24 2.61  21 2.61  15 2.61  23 2.61  12 2.61  20 2.61  14 2.61  11 2.61
                            29 2.75  41 2.75  47 2.75  44 2.75
  39  0.500  0.167  0.833-  22 2.61  24 2.61  19 2.61  21 2.61  13 2.61  15 2.61  10 2.61  12 2.61
                            30 2.75  42 2.75  48 2.75  45 2.75
  40  0.500  0.500  0.167-  26 2.61  23 2.61  17 2.61  25 2.61  14 2.61  22 2.61  16 2.61  13 2.61
                            31 2.75  37 2.75  43 2.75  49 2.75
  41  0.500  0.500  0.500-  27 2.61  24 2.61  18 2.61  26 2.61  15 2.61  23 2.61  17 2.61  14 2.61
                            32 2.75  38 2.75  44 2.75  50 2.75
  42  0.500  0.500  0.833-  25 2.61  27 2.61  22 2.61  24 2.61  16 2.61  18 2.61  13 2.61  15 2.61
                            33 2.75  39 2.75  45 2.75  51 2.75
  43  0.500  0.833  0.167-  20 2.61  26 2.61  11 2.61  17 2.61  25 2.61  19 2.61  16 2.61  10 2.61
                            34 2.75  40 2.75  52 2.75  37 2.75
  44  0.500  0.833  0.500-  21 2.61  27 2.61  12 2.61  18 2.61  26 2.61  20 2.61  17 2.61  11 2.61
                            35 2.75  41 2.75  53 2.75  38 2.75
  45  0.500  0.833  0.833-  19 2.61  21 2.61  25 2.61  27 2.61  10 2.61  12 2.61  16 2.61  18 2.61
                            36 2.75  42 2.75  54 2.75  39 2.75
  46  0.833  0.167  0.167-   5 2.61  23 2.61  20 2.61   2 2.61  22 2.61   4 2.61  19 2.61   1 2.61
                            37 2.75  49 2.75  28 2.75  52 2.75
  47  0.833  0.167  0.500-   6 2.61  24 2.61  21 2.61   3 2.61  23 2.61   5 2.61  20 2.61   2 2.61
                            38 2.75  50 2.75  29 2.75  53 2.75
  48  0.833  0.167  0.833-   4 2.61   6 2.61  22 2.61  24 2.61  19 2.61  21 2.61   1 2.61   3 2.61
                            39 2.75  51 2.75  30 2.75  54 2.75
  49  0.833  0.500  0.167-   8 2.61  26 2.61  23 2.61   5 2.61  25 2.61   7 2.61  22 2.61   4 2.61
                            40 2.75  46 2.75  52 2.75  31 2.75
  50  0.833  0.500  0.500-   9 2.61  27 2.61  24 2.61   6 2.61  26 2.61   8 2.61  23 2.61   5 2.61
                            41 2.75  47 2.75  53 2.75  32 2.75
  51  0.833  0.500  0.833-   7 2.61   9 2.61  25 2.61  27 2.61  22 2.61  24 2.61   4 2.61   6 2.61
                            42 2.75  48 2.75  54 2.75  33 2.75
  52  0.833  0.833  0.167-   2 2.61   8 2.61  20 2.61  26 2.61  19 2.61   7 2.61  25 2.61   1 2.61
                            43 2.75  49 2.75  46 2.75  34 2.75
  53  0.833  0.833  0.500-   3 2.61   9 2.61  21 2.61  27 2.61  20 2.61   8 2.61  26 2.61   2 2.61
                            44 2.75  50 2.75  47 2.75  35 2.75
  54  0.833  0.833  0.833-   1 2.61   3 2.61   7 2.61   9 2.61  19 2.61  21 2.61  25 2.61  27 2.61
                            45 2.75  51 2.75  48 2.75  36 2.75
 
  LATTYP: Found a simple tetragonal cell.
 ALAT       =     8.2501481662
 C/A-ratio  =     1.2642089792
  
  Lattice vectors:
  
 A1 = (   8.2501481662,   0.0000000000,   0.0000000000)
 A2 = (   0.0000000000,   8.2501481662,   0.0000000000)
 A3 = (   0.0000000000,   0.0000000000,  10.4299113916)


Analysis of symmetry for initial positions (statically):
=====================================================================
 Subroutine PRICEL returns following result:
 
  LATTYP: Found a simple tetragonal cell.
 ALAT       =     2.7500493888
 C/A-ratio  =     1.2642089792
  
  Lattice vectors:
  
 A1 = (   2.7500493888,   0.0000000000,   0.0000000000)
 A2 = (   0.0000000000,   2.7500493888,   0.0000000000)
 A3 = (   0.0000000000,   0.0000000000,   3.4766371306)
 
  27 primitive cells build up your supercell.
 

 Routine SETGRP: Setting up the symmetry group for a 
 simple tetragonal supercell.


 Subroutine GETGRP returns: Found 16 space group operations
 (whereof 16 operations were pure point group operations)
 out of a pool of 16 trial point group operations.


The static configuration has the point symmetry D_4h.


Analysis of symmetry for dynamics (positions and initial velocities):
=====================================================================
 Subroutine PRICEL returns following result:
 
  LATTYP: Found a simple tetragonal cell.
 ALAT       =     2.7500493888
 C/A-ratio  =     1.2642089792
  
  Lattice vectors:
  
 A1 = (   2.7500493888,   0.0000000000,   0.0000000000)
 A2 = (   0.0000000000,   2.7500493888,   0.0000000000)
 A3 = (   0.0000000000,   0.0000000000,   3.4766371306)
 
  27 primitive cells build up your supercell.
 

 Routine SETGRP: Setting up the symmetry group for a 
 simple tetragonal supercell.


 Subroutine GETGRP returns: Found 16 space group operations
 (whereof 16 operations were pure point group operations)
 out of a pool of 16 trial point group operations.


The dynamic configuration has the point symmetry D_4h.


Analysis of structural, dynamic, and magnetic symmetry:
=====================================================================
 Subroutine PRICEL returns:
 Original cell was already a primitive cell.
 

 Routine SETGRP: Setting up the symmetry group for a 
 simple tetragonal supercell.


 Subroutine GETGRP returns: Found  8 space group operations
 (whereof  2 operations were pure point group operations)
 out of a pool of 16 trial point group operations.


The magnetic configuration has the point symmetry C_1h.
 The point group associated with its full space group is C_4v.


 Subroutine INISYM returns: Found  8 space group operations
 (whereof  2 operations are pure point group operations),
 and found     1 'primitive' translations

 
 
 KPOINTS: automatic KPOINTS                       

Automatic generation of k-mesh.
 generate k-points for:    5    5    4
Space group operators:
 irot       det(A)        alpha          n_x          n_y          n_z        tau_x        tau_y        tau_z
    1     1.000000     0.000001     1.000000     0.000000     0.000000     0.000000     0.000000     0.000000
    2    -1.000000   180.000000     0.707107    -0.707107     0.000000     0.000000     0.000000     0.000000
    3     1.000000    90.000000     0.000000     0.000000    -1.000000     0.333333     0.000000     0.000000
    4     1.000000   180.000000     0.000000     0.000000     1.000000     0.333333     0.333333     0.000000
    5     1.000000    90.000000     0.000000     0.000000     1.000000     0.000000     0.333333     0.000000
    6    -1.000000   180.000000     0.000000     1.000000     0.000000     0.000000     0.333333     0.000000
    7    -1.000000   180.000000     0.707107     0.707107     0.000000     0.333333     0.333333     0.000000
    8    -1.000000   180.000000     1.000000     0.000000     0.000000     0.333333     0.000000     0.000000
 
 Subroutine IBZKPT returns following result:
 ===========================================
 
 Found     18 irreducible k-points:
 
 Following reciprocal coordinates:
            Coordinates               Weight
  0.000000  0.000000  0.000000      1.000000
  0.200000  0.000000  0.000000      4.000000
  0.400000  0.000000  0.000000      4.000000
  0.200000  0.200000  0.000000      4.000000
  0.400000  0.200000  0.000000      8.000000
  0.400000  0.400000  0.000000      4.000000
  0.000000  0.000000  0.250000      2.000000
  0.200000  0.000000  0.250000      8.000000
  0.400000  0.000000  0.250000      8.000000
  0.200000  0.200000  0.250000      8.000000
  0.400000  0.200000  0.250000     16.000000
  0.400000  0.400000  0.250000      8.000000
  0.000000  0.000000  0.500000      1.000000
  0.200000  0.000000  0.500000      4.000000
  0.400000  0.000000  0.500000      4.000000
  0.200000  0.200000  0.500000      4.000000
  0.400000  0.200000  0.500000      8.000000
  0.400000  0.400000  0.500000      4.000000
 
 Following cartesian coordinates:
            Coordinates               Weight
  0.000000  0.000000  0.000000      1.000000
  0.024242  0.000000  0.000000      4.000000
  0.048484  0.000000  0.000000      4.000000
  0.024242  0.024242  0.000000      4.000000
  0.048484  0.024242  0.000000      8.000000
  0.048484  0.048484  0.000000      4.000000
  0.000000  0.000000  0.023970      2.000000
  0.024242  0.000000  0.023970      8.000000
  0.048484  0.000000  0.023970      8.000000
  0.024242  0.024242  0.023970      8.000000
  0.048484  0.024242  0.023970     16.000000
  0.048484  0.048484  0.023970      8.000000
  0.000000  0.000000  0.047939      1.000000
  0.024242  0.000000  0.047939      4.000000
  0.048484  0.000000  0.047939      4.000000
  0.024242  0.024242  0.047939      4.000000
  0.048484  0.024242  0.047939      8.000000
  0.048484  0.048484  0.047939      4.000000
 


--------------------------------------------------------------------------------------------------------




 Dimension of arrays:
   k-points           NKPTS =     18   k-points in BZ     NKDIM =     18   number of bands    NBANDS=    174
   number of dos      NEDOS =    301   number of ions     NIONS =     54
   non local maximal  LDIM  =      6   non local SUM 2l+1 LMDIM =     18
   total plane-waves  NPLWV = 204120
   max r-space proj   IRMAX =      1   max aug-charges    IRDMAX=  89713
   dimension x,y,z NGX =    54 NGY =   54 NGZ =   70
   dimension x,y,z NGXF=   108 NGYF=  108 NGZF=  140
   support grid    NGXF=   216 NGYF=  216 NGZF=  280
   ions per type =              27  27
   NGX,Y,Z   is equivalent  to a cutoff of  10.88, 10.88, 11.16 a.u.
   NGXF,Y,Z  is equivalent  to a cutoff of  21.76, 21.76, 22.32 a.u.

 SYSTEM =  AlMn_pv                                 
 POSCAR =  NewRef: 27, @ ['Mn', array([1.37502469, 

 Startparameter for this run:
   NWRITE =      2    write-flag & timer
   PREC   = accura    normal or accurate (medium, high low for compatibility)
   ISTART =      0    job   : 0-new  1-cont  2-samecut
   ICHARG =      2    charge: 1-file 2-atom 10-const
   ISPIN  =      2    spin polarized calculation?
   LNONCOLLINEAR =      F non collinear calculations
   LSORBIT =      F    spin-orbit coupling
   INIWAV =      1    electr: 0-lowe 1-rand  2-diag
   LASPH  =      F    aspherical Exc in radial PAW
   METAGGA=      F    non-selfconsistent MetaGGA calc.

 Electronic Relaxation 1
   ENCUT  =  404.8 eV  29.75 Ry    5.45 a.u.  13.53 13.53 17.11*2*pi/ulx,y,z
   ENINI  =  404.8     initial cutoff
   ENAUG  =  500.7 eV  augmentation charge cutoff
   NELM   =    100;   NELMIN=  4; NELMDL= -8     # of ELM steps 
   EDIFF  = 0.1E-06   stopping-criterion for ELM
   LREAL  =      F    real-space projection
   NLSPLINE    = F    spline interpolate recip. space projectors
   LCOMPAT=      F    compatible to vasp.4.4
   GGA_COMPAT  = T    GGA compatible to vasp.4.4-vasp.4.6
   LMAXPAW     = -100 max onsite density
   LMAXMIX     =    2 max onsite mixed and CHGCAR
   VOSKOWN=      0    Vosko Wilk Nusair interpolation
   ROPT   =    0.00000   0.00000
 Ionic relaxation
   EDIFFG = 0.1E-05   stopping-criterion for IOM
   NSW    =      0    number of steps for IOM
   NBLOCK =      1;   KBLOCK =      1    inner block; outer block 
   IBRION =     -1    ionic relax: 0-MD 1-quasi-New 2-CG
   NFREE  =      0    steps in history (QN), initial steepest desc. (CG)
   ISIF   =      2    stress and relaxation
   IWAVPR =     10    prediction:  0-non 1-charg 2-wave 3-comb
   ISYM   =      2    0-nonsym 1-usesym 2-fastsym
   LCORR  =      T    Harris-Foulkes like correction to forces

   POTIM  = 0.2000    time-step for ionic-motion
   TEIN   =    0.0    initial temperature
   TEBEG  =    0.0;   TEEND  =   0.0 temperature during run
   SMASS  =  -3.00    Nose mass-parameter (am)
   estimated Nose-frequenzy (Omega)   =  0.10E-29 period in steps =****** mass=  -0.156E-26a.u.
   SCALEE = 1.0000    scale energy and forces
   NPACO  =    256;   APACO  = 16.0  distance and # of slots for P.C.
   PSTRESS=    0.0 pullay stress

  Mass of Ions in am
   POMASS =  26.98 54.94
  Ionic Valenz
   ZVAL   =   3.00  7.00
  Atomic Wigner-Seitz radii
   RWIGS  =  -1.00 -1.00
  virtual crystal weights 
   VCA    =   1.00  1.00
   NELECT =     270.0000    total number of electrons
   NUPDOWN=      -1.0000    fix difference up-down

 DOS related values:
   EMIN   =  10.00;   EMAX   =-10.00  energy-range for DOS
   EFERMI =   0.00
   ISMEAR =     1;   SIGMA  =   0.20  broadening in eV -4-tet -1-fermi 0-gaus

 Electronic relaxation 2 (details)
   IALGO  =     58    algorithm
   LDIAG  =      T    sub-space diagonalisation (order eigenvalues)
   LSUBROT=      F    optimize rotation matrix (better conditioning)
   TURBO    =      0    0=normal 1=particle mesh
   IRESTART =      0    0=no restart 2=restart with 2 vectors
   NREBOOT  =      0    no. of reboots
   NMIN     =      0    reboot dimension
   EREF     =   0.00    reference energy to select bands
   IMIX   =      4    mixing-type and parameters
     AMIX     =   0.40;   BMIX     =  1.00
     AMIX_MAG =   1.60;   BMIX_MAG =  1.00
     AMIN     =   0.10
     WC   =   100.;   INIMIX=   1;  MIXPRE=   1;  MAXMIX= -45

 Intra band minimization:
   WEIMIN = 0.0000     energy-eigenvalue tresh-hold
   EBREAK =  0.14E-09  absolut break condition
   DEPER  =   0.30     relativ break condition  

   TIME   =   0.40     timestep for ELM

  volume/ion in A,a.u.               =      13.15        88.72
  Fermi-wavevector in a.u.,A,eV,Ry     =   1.186118  2.241439 19.141722  1.406877
  Thomas-Fermi vector in A             =   2.322298
 
 Write flags
   LWAVE        =      F    write WAVECAR
   LDOWNSAMPLE  =      F    k-point downsampling of WAVECAR
   LCHARG       =      F    write CHGCAR
   LVTOT        =      F    write LOCPOT, total local potential
   LVHAR        =      F    write LOCPOT, Hartree potential only
   LELF         =      F    write electronic localiz. function (ELF)
   LORBIT       =     10    0 simple, 1 ext, 2 COOP (PROOUT), +10 PAW based schemes


 Dipole corrections
   LMONO  =      F    monopole corrections only (constant potential shift)
   LDIPOL =      F    correct potential (dipole corrections)
   IDIPOL =      0    1-x, 2-y, 3-z, 4-all directions 
   EPSILON=  1.0000000 bulk dielectric constant

 Exchange correlation treatment:
   GGA     =    --    GGA type
   LEXCH   =     8    internal setting for exchange type
   VOSKOWN=      0    Vosko Wilk Nusair interpolation
   LHFCALC =     F    Hartree Fock is set to
   LHFONE  =     F    Hartree Fock one center treatment
   AEXX    =    0.0000 exact exchange contribution

 Linear response parameters
   LEPSILON=     F    determine dielectric tensor
   LRPA    =     F    only Hartree local field effects (RPA)
   LNABLA  =     F    use nabla operator in PAW spheres
   LVEL    =     F    velocity operator in full k-point grid
   LINTERFAST=   F  fast interpolation
   KINTER  =     0    interpolate to denser k-point grid
   CSHIFT  =0.1000    complex shift for real part using Kramers Kronig
   OMEGAMAX=  -1.0    maximum frequency
   DEG_THRESHOLD= 0.2000000E-02 threshold for treating states as degnerate
   RTIME   =   -0.100 relaxation time in fs
  (WPLASMAI=    0.000 imaginary part of plasma frequency in eV, 0.658/RTIME)
   DFIELD  = 0.0000000 0.0000000 0.0000000 field for delta impulse in time
 
 Orbital magnetization related:
   ORBITALMAG=     F  switch on orbital magnetization
   LCHIMAG   =     F  perturbation theory with respect to B field
   DQ        =  0.001000  dq finite difference perturbation B field
   LLRAUG    =     F  two centre corrections for induced B field



--------------------------------------------------------------------------------------------------------


 Static calculation
 charge density and potential will be updated during run
 spin polarized calculation
 Conjugate gradient for all bands (Freysoldt, et al. PRB 79, 241103 (2009))
 preconditioned conjugated gradient                                        
 perform sub-space diagonalisation
    before iterative eigenvector-optimisation
 modified Broyden-mixing scheme, WC =      100.0
 initial mixing is a Kerker type mixing with AMIX =  0.4000 and BMIX =      1.0000
 Hartree-type preconditioning will be used
 using additional bands           39
 reciprocal scheme for non local part
 use partial core corrections
 no Harris-corrections to forces 
 use gradient corrections 
 use of overlap-Matrix (Vanderbilt PP)
 Methfessel and Paxton  Order N= 1 SIGMA  =   0.20


--------------------------------------------------------------------------------------------------------


  energy-cutoff  :      404.80
  volume of cell :      709.91
      direct lattice vectors                 reciprocal lattice vectors
     8.250148166  0.000000000  0.000000000     0.121209944  0.000000000  0.000000000
     0.000000000  8.250148166  0.000000000     0.000000000  0.121209944  0.000000000
     0.000000000  0.000000000 10.429911392     0.000000000  0.000000000  0.095878092

  length of vectors
     8.250148166  8.250148166 10.429911392     0.121209944  0.121209944  0.095878092


 
 k-points in units of 2pi/SCALE and weight: automatic KPOINTS                       
   0.00000000  0.00000000  0.00000000       0.010
   0.02424199  0.00000000  0.00000000       0.040
   0.04848398  0.00000000  0.00000000       0.040
   0.02424199  0.02424199  0.00000000       0.040
   0.04848398  0.02424199  0.00000000       0.080
   0.04848398  0.04848398  0.00000000       0.040
   0.00000000  0.00000000  0.02396952       0.020
   0.02424199  0.00000000  0.02396952       0.080
   0.04848398  0.00000000  0.02396952       0.080
   0.02424199  0.02424199  0.02396952       0.080
   0.04848398  0.02424199  0.02396952       0.160
   0.04848398  0.04848398  0.02396952       0.080
   0.00000000  0.00000000  0.04793905       0.010
   0.02424199  0.00000000  0.04793905       0.040
   0.04848398  0.00000000  0.04793905       0.040
   0.02424199  0.02424199  0.04793905       0.040
   0.04848398  0.02424199  0.04793905       0.080
   0.04848398  0.04848398  0.04793905       0.040
 
 k-points in reciprocal lattice and weights: automatic KPOINTS                       
   0.00000000  0.00000000  0.00000000       0.010
   0.20000000  0.00000000  0.00000000       0.040
   0.40000000  0.00000000  0.00000000       0.040
   0.20000000  0.20000000  0.00000000       0.040
   0.40000000  0.20000000  0.00000000       0.080
   0.40000000  0.40000000  0.00000000       0.040
   0.00000000  0.00000000  0.25000000       0.020
   0.20000000  0.00000000  0.25000000       0.080
   0.40000000  0.00000000  0.25000000       0.080
   0.20000000  0.20000000  0.25000000       0.080
   0.40000000  0.20000000  0.25000000       0.160
   0.40000000  0.40000000  0.25000000       0.080
   0.00000000  0.00000000  0.50000000       0.010
   0.20000000  0.00000000  0.50000000       0.040
   0.40000000  0.00000000  0.50000000       0.040
   0.20000000  0.20000000  0.50000000       0.040
   0.40000000  0.20000000  0.50000000       0.080
   0.40000000  0.40000000  0.50000000       0.040
 
 position of ions in fractional coordinates (direct lattice) 
   0.00000000  0.00000000  0.00000000
   0.00000000  0.00000000  0.33333333
   0.00000000  0.00000000  0.66666667
   0.00000000  0.33333333  0.00000000
   0.00000000  0.33333333  0.33333333
   0.00000000  0.33333333  0.66666667
   0.00000000  0.66666667  0.00000000
   0.00000000  0.66666667  0.33333333
   0.00000000  0.66666667  0.66666667
   0.33333333  0.00000000  0.00000000
   0.33333333  0.00000000  0.33333333
   0.33333333  0.00000000  0.66666667
   0.33333333  0.33333333  0.00000000
   0.33333333  0.33333333  0.33333333
   0.33333333  0.33333333  0.66666667
   0.33333333  0.66666667  0.00000000
   0.33333333  0.66666667  0.33333333
   0.33333333  0.66666667  0.66666667
   0.66666667  0.00000000  0.00000000
   0.66666667  0.00000000  0.33333333
   0.66666667  0.00000000  0.66666667
   0.66666667  0.33333333  0.00000000
   0.66666667  0.33333333  0.33333333
   0.66666667  0.33333333  0.66666667
   0.66666667  0.66666667  0.00000000
   0.66666667  0.66666667  0.33333333
   0.66666667  0.66666667  0.66666667
   0.16666667  0.16666667  0.16666667
   0.16666667  0.16666667  0.50000000
   0.16666667  0.16666667  0.83333333
   0.16666667  0.50000000  0.16666667
   0.16666667  0.50000000  0.50000000
   0.16666667  0.50000000  0.83333333
   0.16666667  0.83333333  0.16666667
   0.16666667  0.83333333  0.50000000
   0.16666667  0.83333333  0.83333333
   0.50000000  0.16666667  0.16666667
   0.50000000  0.16666667  0.50000000
   0.50000000  0.16666667  0.83333333
   0.50000000  0.50000000  0.16666667
   0.50000000  0.50000000  0.50000000
   0.50000000  0.50000000  0.83333333
   0.50000000  0.83333333  0.16666667
   0.50000000  0.83333333  0.50000000
   0.50000000  0.83333333  0.83333333
   0.83333333  0.16666667  0.16666667
   0.83333333  0.16666667  0.50000000
   0.83333333  0.16666667  0.83333333
   0.83333333  0.50000000  0.16666667
   0.83333333  0.50000000  0.50000000
   0.83333333  0.50000000  0.83333333
   0.83333333  0.83333333  0.16666667
   0.83333333  0.83333333  0.50000000
   0.83333333  0.83333333  0.83333333
 
 position of ions in cartesian coordinates  (Angst):
   0.00000000  0.00000000  0.00000000
   0.00000000  0.00000000  3.47663713
   0.00000000  0.00000000  6.95327426
   0.00000000  2.75004939  0.00000000
   0.00000000  2.75004939  3.47663713
   0.00000000  2.75004939  6.95327426
   0.00000000  5.50009878  0.00000000
   0.00000000  5.50009878  3.47663713
   0.00000000  5.50009878  6.95327426
   2.75004939  0.00000000  0.00000000
   2.75004939  0.00000000  3.47663713
   2.75004939  0.00000000  6.95327426
   2.75004939  2.75004939  0.00000000
   2.75004939  2.75004939  3.47663713
   2.75004939  2.75004939  6.95327426
   2.75004939  5.50009878  0.00000000
   2.75004939  5.50009878  3.47663713
   2.75004939  5.50009878  6.95327426
   5.50009878  0.00000000  0.00000000
   5.50009878  0.00000000  3.47663713
   5.50009878  0.00000000  6.95327426
   5.50009878  2.75004939  0.00000000
   5.50009878  2.75004939  3.47663713
   5.50009878  2.75004939  6.95327426
   5.50009878  5.50009878  0.00000000
   5.50009878  5.50009878  3.47663713
   5.50009878  5.50009878  6.95327426
   1.37502469  1.37502469  1.73831857
   1.37502469  1.37502469  5.21495570
   1.37502469  1.37502469  8.69159283
   1.37502469  4.12507408  1.73831857
   1.37502469  4.12507408  5.21495570
   1.37502469  4.12507408  8.69159283
   1.37502469  6.87512347  1.73831857
   1.37502469  6.87512347  5.21495570
   1.37502469  6.87512347  8.69159283
   4.12507408  1.37502469  1.73831857
   4.12507408  1.37502469  5.21495570
   4.12507408  1.37502469  8.69159283
   4.12507408  4.12507408  1.73831857
   4.12507408  4.12507408  5.21495570
   4.12507408  4.12507408  8.69159283
   4.12507408  6.87512347  1.73831857
   4.12507408  6.87512347  5.21495570
   4.12507408  6.87512347  8.69159283
   6.87512347  1.37502469  1.73831857
   6.87512347  1.37502469  5.21495570
   6.87512347  1.37502469  8.69159283
   6.87512347  4.12507408  1.73831857
   6.87512347  4.12507408  5.21495570
   6.87512347  4.12507408  8.69159283
   6.87512347  6.87512347  1.73831857
   6.87512347  6.87512347  5.21495570
   6.87512347  6.87512347  8.69159283
 


--------------------------------------------------------------------------------------------------------


 k-point  1 :   0.0000 0.0000 0.0000  plane waves:   13099
 k-point  2 :   0.2000 0.0000 0.0000  plane waves:   13101
 k-point  3 :   0.4000 0.0000 0.0000  plane waves:   13111
 k-point  4 :   0.2000 0.2000 0.0000  plane waves:   13137
 k-point  5 :   0.4000 0.2000 0.0000  plane waves:   13119
 k-point  6 :   0.4000 0.4000 0.0000  plane waves:   13129
 k-point  7 :   0.0000 0.0000 0.2500  plane waves:   13134
 k-point  8 :   0.2000 0.0000 0.2500  plane waves:   13149
 k-point  9 :   0.4000 0.0000 0.2500  plane waves:   13119
 k-point 10 :   0.2000 0.2000 0.2500  plane waves:   13145
 k-point 11 :   0.4000 0.2000 0.2500  plane waves:   13134
 k-point 12 :   0.4000 0.4000 0.2500  plane waves:   13108
 k-point 13 :   0.0000 0.0000 0.5000  plane waves:   13186
 k-point 14 :   0.2000 0.0000 0.5000  plane waves:   13124
 k-point 15 :   0.4000 0.0000 0.5000  plane waves:   13152
 k-point 16 :   0.2000 0.2000 0.5000  plane waves:   13136
 k-point 17 :   0.4000 0.2000 0.5000  plane waves:   13128
 k-point 18 :   0.4000 0.4000 0.5000  plane waves:   13112

 maximum and minimum number of plane-waves per node :      3304     3246

 maximum number of plane-waves:     13186
 maximum index in each direction: 
   IXMAX=   13   IYMAX=   13   IZMAX=   17
   IXMIN=  -13   IYMIN=  -13   IZMIN=  -17


 parallel 3D FFT for wavefunctions:
    minimum data exchange during FFTs selected (reduces bandwidth)
 parallel 3D FFT for charge:
    minimum data exchange during FFTs selected (reduces bandwidth)


 total amount of memory used by VASP MPI-rank0   626513. kBytes
=======================================================================

   base      :      30000. kBytes
   nonl-proj :      19946. kBytes
   fftplans  :      31580. kBytes
   grid      :      21385. kBytes
   one-center:        435. kBytes
   wavefun   :     523167. kBytes
 
     INWAV:  cpu time    0.0000: real time    0.0000
 Broyden mixing: mesh for mixing (old mesh)
   NGX = 27   NGY = 27   NGZ = 35
  (NGX  =108   NGY  =108   NGZ  =140)
  gives a total of  25515 points

 initial charge density was supplied:
 charge density of overlapping atoms calculated
 number of electron     270.0000000 magnetization      21.0000000
 keeping initial charge density in first step


--------------------------------------------------------------------------------------------------------


 Maximum index for augmentation-charges        10967 (set IRDMAX)


--------------------------------------------------------------------------------------------------------


 First call to EWALD:  gamma=   0.199
 Maximum number of real-space cells 3x 3x 2
 Maximum number of reciprocal cells 3x 3x 3

    FEWALD:  cpu time    0.0024: real time    0.0024


--------------------------------------- Iteration      1(   1)  ---------------------------------------


    POTLOK:  cpu time    0.3870: real time    0.4596
    SETDIJ:  cpu time    0.4560: real time    0.4577
    TRIAL :  cpu time   21.7730: real time   21.9059
    CORREC:  cpu time    0.0038: real time    0.0039
    --------------------------------------------
      LOOP:  cpu time   22.7994: real time   23.0139

 eigenvalue-minimisations  : 12528
 total energy-change (2. order) : 0.2034316E+04  (-0.8848030E+04)
 number of electron     270.0000000 magnetization      21.0000000
 augmentation part      270.0000000 magnetization      21.0000000

 Free energy of the ion-electron system (eV)
  ---------------------------------------------------
  alpha Z        PSCENC =       798.38614055
  Ewald energy   TEWEN  =    -12901.57693327
  -Hartree energ DENC   =     -2855.60785864
  -exchange      EXHF   =         0.00000000
  -V(xc)+E(xc)   XCENC  =      -995.96582484
  PAW double counting   =     12741.82587617   -11476.22345381
  entropy T*S    EENTRO =        -0.00266542
  eigenvalues    EBANDS =      4025.80693968
  atomic energy  EATOM  =     12697.67401269
  ---------------------------------------------------
  free energy    TOTEN  =      2034.31623310 eV

  energy without entropy =     2034.31889852  energy(sigma->0) =     2034.31712158


--------------------------------------------------------------------------------------------------------




--------------------------------------- Iteration      1(   2)  ---------------------------------------


    TRIAL :  cpu time   22.6794: real time   22.9157
    CORREC:  cpu time    0.0049: real time    0.0058
    --------------------------------------------
      LOOP:  cpu time   22.6878: real time   22.9253

 eigenvalue-minimisations  : 12528
 total energy-change (2. order) :-0.2131139E+04  (-0.2072845E+04)
 number of electron     270.0000000 magnetization      21.0000000
 augmentation part      270.0000000 magnetization      21.0000000

 Free energy of the ion-electron system (eV)
  ---------------------------------------------------
  alpha Z        PSCENC =       798.38614055
  Ewald energy   TEWEN  =    -12901.57693327
  -Hartree energ DENC   =     -2855.60785864
  -exchange      EXHF   =         0.00000000
  -V(xc)+E(xc)   XCENC  =      -995.96582484
  PAW double counting   =     12741.82587617   -11476.22345381
  entropy T*S    EENTRO =         0.00334057
  eigenvalues    EBANDS =      1894.66180631
  atomic energy  EATOM  =     12697.67401269
  ---------------------------------------------------
  free energy    TOTEN  =       -96.82289428 eV

  energy without entropy =      -96.82623485  energy(sigma->0) =      -96.82400781


--------------------------------------------------------------------------------------------------------




--------------------------------------- Iteration      1(   3)  ---------------------------------------


    TRIAL :  cpu time   30.2071: real time   30.3600
    CORREC:  cpu time    0.0054: real time    0.0056
    --------------------------------------------
      LOOP:  cpu time   30.2134: real time   30.3688

 eigenvalue-minimisations  : 18840
 total energy-change (2. order) :-0.2604882E+03  (-0.2296341E+03)
 number of electron     270.0000000 magnetization      21.0000000
 augmentation part      270.0000000 magnetization      21.0000000

 Free energy of the ion-electron system (eV)
  ---------------------------------------------------
  alpha Z        PSCENC =       798.38614055
  Ewald energy   TEWEN  =    -12901.57693327
  -Hartree energ DENC   =     -2855.60785864
  -exchange      EXHF   =         0.00000000
  -V(xc)+E(xc)   XCENC  =      -995.96582484
  PAW double counting   =     12741.82587617   -11476.22345381
  entropy T*S    EENTRO =         0.00889899
  eigenvalues    EBANDS =      1634.16804775
  atomic energy  EATOM  =     12697.67401269
  ---------------------------------------------------
  free energy    TOTEN  =      -357.31109442 eV

  energy without entropy =     -357.31999341  energy(sigma->0) =     -357.31406075


--------------------------------------------------------------------------------------------------------




--------------------------------------- Iteration      1(   4)  ---------------------------------------


    TRIAL :  cpu time   32.7298: real time   33.1253
    CORREC:  cpu time    0.0058: real time    0.0068
    --------------------------------------------
      LOOP:  cpu time   32.7368: real time   33.1356

 eigenvalue-minimisations  : 20336
 total energy-change (2. order) :-0.4221839E+02  (-0.3705565E+02)
 number of electron     270.0000000 magnetization      21.0000000
 augmentation part      270.0000000 magnetization      21.0000000

 Free energy of the ion-electron system (eV)
  ---------------------------------------------------
  alpha Z        PSCENC =       798.38614055
  Ewald energy   TEWEN  =    -12901.57693327
  -Hartree energ DENC   =     -2855.60785864
  -exchange      EXHF   =         0.00000000
  -V(xc)+E(xc)   XCENC  =      -995.96582484
  PAW double counting   =     12741.82587617   -11476.22345381
  entropy T*S    EENTRO =         0.01995310
  eigenvalues    EBANDS =      1591.93860574
  atomic energy  EATOM  =     12697.67401269
  ---------------------------------------------------
  free energy    TOTEN  =      -399.52948233 eV

  energy without entropy =     -399.54943542  energy(sigma->0) =     -399.53613336


--------------------------------------------------------------------------------------------------------




--------------------------------------- Iteration      1(   5)  ---------------------------------------


    TRIAL :  cpu time   32.5771: real time   32.7817
    CORREC:  cpu time    0.0059: real time    0.0067
    --------------------------------------------
      LOOP:  cpu time   32.5858: real time   32.7922

 eigenvalue-minimisations  : 20688
 total energy-change (2. order) :-0.4375314E+01  (-0.4189266E+01)
 number of electron     270.0000000 magnetization      21.0000000
 augmentation part      270.0000000 magnetization      21.0000000

 Free energy of the ion-electron system (eV)
  ---------------------------------------------------
  alpha Z        PSCENC =       798.38614055
  Ewald energy   TEWEN  =    -12901.57693327
  -Hartree energ DENC   =     -2855.60785864
  -exchange      EXHF   =         0.00000000
  -V(xc)+E(xc)   XCENC  =      -995.96582484
  PAW double counting   =     12741.82587617   -11476.22345381
  entropy T*S    EENTRO =         0.02627706
  eigenvalues    EBANDS =      1587.55696756
  atomic energy  EATOM  =     12697.67401269
  ---------------------------------------------------
  free energy    TOTEN  =      -403.90479655 eV

  energy without entropy =     -403.93107360  energy(sigma->0) =     -403.91355557


--------------------------------------------------------------------------------------------------------




--------------------------------------- Iteration      1(   6)  ---------------------------------------


    TRIAL :  cpu time   33.1808: real time   33.5309
    CORREC:  cpu time    0.0060: real time    0.0061
    --------------------------------------------
      LOOP:  cpu time   33.1901: real time   33.5411

 eigenvalue-minimisations  : 20624
 total energy-change (2. order) :-0.3598171E+00  (-0.3533153E+00)
 number of electron     270.0000000 magnetization      21.0000000
 augmentation part      270.0000000 magnetization      21.0000000

 Free energy of the ion-electron system (eV)
  ---------------------------------------------------
  alpha Z        PSCENC =       798.38614055
  Ewald energy   TEWEN  =    -12901.57693327
  -Hartree energ DENC   =     -2855.60785864
  -exchange      EXHF   =         0.00000000
  -V(xc)+E(xc)   XCENC  =      -995.96582484
  PAW double counting   =     12741.82587617   -11476.22345381
  entropy T*S    EENTRO =         0.02812417
  eigenvalues    EBANDS =      1587.19530334
  atomic energy  EATOM  =     12697.67401269
  ---------------------------------------------------
  free energy    TOTEN  =      -404.26461365 eV

  energy without entropy =     -404.29273782  energy(sigma->0) =     -404.27398838


--------------------------------------------------------------------------------------------------------




--------------------------------------- Iteration      1(   7)  ---------------------------------------


    TRIAL :  cpu time   32.8957: real time   33.1032
    CORREC:  cpu time    0.0059: real time    0.0068
    --------------------------------------------
      LOOP:  cpu time   32.9038: real time   33.1138

 eigenvalue-minimisations  : 20984
 total energy-change (2. order) :-0.3712439E-01  (-0.3681397E-01)
 number of electron     270.0000000 magnetization      21.0000000
 augmentation part      270.0000000 magnetization      21.0000000

 Free energy of the ion-electron system (eV)
  ---------------------------------------------------
  alpha Z        PSCENC =       798.38614055
  Ewald energy   TEWEN  =    -12901.57693327
  -Hartree energ DENC   =     -2855.60785864
  -exchange      EXHF   =         0.00000000
  -V(xc)+E(xc)   XCENC  =      -995.96582484
  PAW double counting   =     12741.82587617   -11476.22345381
  entropy T*S    EENTRO =         0.02838097
  eigenvalues    EBANDS =      1587.15792214
  atomic energy  EATOM  =     12697.67401269
  ---------------------------------------------------
  free energy    TOTEN  =      -404.30173805 eV

  energy without entropy =     -404.33011902  energy(sigma->0) =     -404.31119837


--------------------------------------------------------------------------------------------------------




--------------------------------------- Iteration      1(   8)  ---------------------------------------


    TRIAL :  cpu time   32.6957: real time   33.1207
    CORREC:  cpu time    0.0062: real time    0.0071
    CHARGE:  cpu time    1.2503: real time    1.2509
    --------------------------------------------
      LOOP:  cpu time   33.9533: real time   34.3829

 eigenvalue-minimisations  : 20224
 total energy-change (2. order) :-0.2943066E-02  (-0.2927191E-02)
 number of electron     269.9999995 magnetization      14.5119823
 augmentation part       64.2490252 magnetization       8.4045108

 Free energy of the ion-electron system (eV)
  ---------------------------------------------------
  alpha Z        PSCENC =       798.38614055
  Ewald energy   TEWEN  =    -12901.57693327
  -Hartree energ DENC   =     -2855.60785864
  -exchange      EXHF   =         0.00000000
  -V(xc)+E(xc)   XCENC  =      -995.96582484
  PAW double counting   =     12741.82587617   -11476.22345381
  entropy T*S    EENTRO =         0.02843745
  eigenvalues    EBANDS =      1587.15492260
  atomic energy  EATOM  =     12697.67401269
  ---------------------------------------------------
  free energy    TOTEN  =      -404.30468111 eV

  energy without entropy =     -404.33311856  energy(sigma->0) =     -404.31416026


--------------------------------------------------------------------------------------------------------




--------------------------------------- Iteration      1(   9)  ---------------------------------------


    POTLOK:  cpu time    0.3973: real time    0.3974
    SETDIJ:  cpu time    0.4776: real time    0.4779
    TRIAL :  cpu time   11.1531: real time   11.1668
    CORREC:  cpu time    4.0035: real time    4.0705
    CHARGE:  cpu time    1.2615: real time    1.2620
    --------------------------------------------
      LOOP:  cpu time   17.2953: real time   17.3777

 eigenvalue-minimisations  :     0
 total energy-change (2. order) : 0.2985221E+03  (-0.2173430E+03)
 number of electron     269.9999993 magnetization      15.4902805
 augmentation part       82.6701187 magnetization      10.2878197

 Free energy of the ion-electron system (eV)
  ---------------------------------------------------
  alpha Z        PSCENC =       798.38614055
  Ewald energy   TEWEN  =    -12901.57693327
  -Hartree energ DENC   =     -1274.58251430
  -exchange      EXHF   =         0.00000000
  -V(xc)+E(xc)   XCENC  =     -1041.52118584
  PAW double counting   =     19174.47337049   -17755.04196737
  entropy T*S    EENTRO =         0.01917247
  eigenvalues    EBANDS =       196.37802349
  atomic energy  EATOM  =     12697.67401269
  ---------------------------------------------------
  free energy    TOTEN  =      -105.78261610 eV

  energy without entropy =     -105.80178858  energy(sigma->0) =     -105.78900693


--------------------------------------------------------------------------------------------------------




--------------------------------------- Iteration      1(  10)  ---------------------------------------


    POTLOK:  cpu time    0.3934: real time    0.3936
    SETDIJ:  cpu time    0.4556: real time    0.4558
    TRIAL :  cpu time   11.1021: real time   11.2033
    CORREC:  cpu time    3.9563: real time    4.0586
    CHARGE:  cpu time    1.2499: real time    1.2505
    --------------------------------------------
      LOOP:  cpu time   17.1620: real time   17.3681

 eigenvalue-minimisations  :     0
 total energy-change (2. order) :-0.2131929E+03  (-0.1185162E+02)
 number of electron     269.9999993 magnetization      15.7442935
 augmentation part       86.3378968 magnetization      10.5791419

 Free energy of the ion-electron system (eV)
  ---------------------------------------------------
  alpha Z        PSCENC =       798.38614055
  Ewald energy   TEWEN  =    -12901.57693327
  -Hartree energ DENC   =     -2116.97418845
  -exchange      EXHF   =         0.00000000
  -V(xc)+E(xc)   XCENC  =     -1012.02724709
  PAW double counting   =     20688.76617261   -19452.02338963
  entropy T*S    EENTRO =         0.00813783
  eigenvalues    EBANDS =       978.78074670
  atomic energy  EATOM  =     12697.67401269
  ---------------------------------------------------
  free energy    TOTEN  =      -318.97551340 eV

  energy without entropy =     -318.98365123  energy(sigma->0) =     -318.97822601


--------------------------------------------------------------------------------------------------------




--------------------------------------- Iteration      1(  11)  ---------------------------------------


    POTLOK:  cpu time    0.3934: real time    0.3936
    SETDIJ:  cpu time    0.5034: real time    0.5036
    TRIAL :  cpu time   12.0385: real time   12.1818
    CORREC:  cpu time    5.0054: real time    5.0253
    CHARGE:  cpu time    1.2654: real time    1.2659
    --------------------------------------------
      LOOP:  cpu time   19.2074: real time   19.3723

 eigenvalue-minimisations  :     0
 total energy-change (2. order) :-0.1120636E+02  (-0.1114013E+02)
 number of electron     269.9999993 magnetization      15.9529878
 augmentation part       88.9975109 magnetization      11.0450286

 Free energy of the ion-electron system (eV)
  ---------------------------------------------------
  alpha Z        PSCENC =       798.38614055
  Ewald energy   TEWEN  =    -12901.57693327
  -Hartree energ DENC   =     -2335.59241357
  -exchange      EXHF   =         0.00000000
  -V(xc)+E(xc)   XCENC  =     -1003.92222529
  PAW double counting   =     21533.29940590   -20332.70781350
  entropy T*S    EENTRO =         0.00210312
  eigenvalues    EBANDS =      1214.24981875
  atomic energy  EATOM  =     12697.67401269
  ---------------------------------------------------
  free energy    TOTEN  =      -330.18186991 eV

  energy without entropy =     -330.18397303  energy(sigma->0) =     -330.18257095


--------------------------------------------------------------------------------------------------------




--------------------------------------- Iteration      1(  12)  ---------------------------------------


    POTLOK:  cpu time    0.3920: real time    0.3921
    SETDIJ:  cpu time    0.4646: real time    0.4648
    TRIAL :  cpu time   11.0972: real time   11.1727
    CORREC:  cpu time    4.0021: real time    4.0236
    CHARGE:  cpu time    1.2457: real time    1.2500
    --------------------------------------------
      LOOP:  cpu time   17.2029: real time   17.3053

 eigenvalue-minimisations  :     0
 total energy-change (2. order) :-0.1134556E+02  (-0.1198796E+02)
 number of electron     269.9999993 magnetization      16.3185698
 augmentation part       86.7863569 magnetization      11.3045297

 Free energy of the ion-electron system (eV)
  ---------------------------------------------------
  alpha Z        PSCENC =       798.38614055
  Ewald energy   TEWEN  =    -12901.57693327
  -Hartree energ DENC   =     -2546.60293647
  -exchange      EXHF   =         0.00000000
  -V(xc)+E(xc)   XCENC  =      -996.75422080
  PAW double counting   =     21847.86474193   -20661.23404770
  entropy T*S    EENTRO =        -0.02565029
  eigenvalues    EBANDS =      1420.71371119
  atomic energy  EATOM  =     12697.67401269
  ---------------------------------------------------
  free energy    TOTEN  =      -341.52742876 eV

  energy without entropy =     -341.50177847  energy(sigma->0) =     -341.51887866


--------------------------------------------------------------------------------------------------------




--------------------------------------- Iteration      1(  13)  ---------------------------------------


    POTLOK:  cpu time    0.3915: real time    0.3915
    SETDIJ:  cpu time    0.4602: real time    0.4603
    TRIAL :  cpu time   11.1064: real time   11.2261
    CORREC:  cpu time    4.0794: real time    4.0807
    CHARGE:  cpu time    1.2944: real time    1.3131
    --------------------------------------------
      LOOP:  cpu time   17.3344: real time   17.4750

 eigenvalue-minimisations  :     0
 total energy-change (2. order) :-0.1192604E+02  (-0.8720356E+00)
 number of electron     269.9999993 magnetization      16.6229884
 augmentation part       86.2646385 magnetization      11.3272444

 Free energy of the ion-electron system (eV)
  ---------------------------------------------------
  alpha Z        PSCENC =       798.38614055
  Ewald energy   TEWEN  =    -12901.57693327
  -Hartree energ DENC   =     -2519.48962311
  -exchange      EXHF   =         0.00000000
  -V(xc)+E(xc)   XCENC  =      -998.63947256
  PAW double counting   =     21227.96701001   -19989.88217225
  entropy T*S    EENTRO =        -0.02781895
  eigenvalues    EBANDS =      1332.13322122
  atomic energy  EATOM  =     12697.67401269
  ---------------------------------------------------
  free energy    TOTEN  =      -353.45346701 eV

  energy without entropy =     -353.42564805  energy(sigma->0) =     -353.44419402


--------------------------------------------------------------------------------------------------------




--------------------------------------- Iteration      1(  14)  ---------------------------------------


    POTLOK:  cpu time    0.3921: real time    0.3922
    SETDIJ:  cpu time    0.4604: real time    0.4604
    TRIAL :  cpu time   12.0802: real time   12.2567
    CORREC:  cpu time    4.0256: real time    4.0482
    CHARGE:  cpu time    1.2586: real time    1.2590
    --------------------------------------------
      LOOP:  cpu time   18.2212: real time   18.4214

 eigenvalue-minimisations  :     0
 total energy-change (2. order) :-0.8665550E+00  (-0.1253381E+01)
 number of electron     269.9999993 magnetization      16.5960167
 augmentation part       85.9890958 magnetization      11.2589738

 Free energy of the ion-electron system (eV)
  ---------------------------------------------------
  alpha Z        PSCENC =       798.38614055
  Ewald energy   TEWEN  =    -12901.57693327
  -Hartree energ DENC   =     -2491.43738113
  -exchange      EXHF   =         0.00000000
  -V(xc)+E(xc)   XCENC  =      -999.67432312
  PAW double counting   =     20895.54789274   -19648.51075714
  entropy T*S    EENTRO =        -0.02918827
  eigenvalues    EBANDS =      1295.29914561
  atomic energy  EATOM  =     12697.67401269
  ---------------------------------------------------
  free energy    TOTEN  =      -354.32002202 eV

  energy without entropy =     -354.29083375  energy(sigma->0) =     -354.31029259


--------------------------------------------------------------------------------------------------------




--------------------------------------- Iteration      1(  15)  ---------------------------------------


    POTLOK:  cpu time    0.3907: real time    0.4113
    SETDIJ:  cpu time    0.4639: real time    0.4788
    TRIAL :  cpu time   11.1090: real time   11.2047
    CORREC:  cpu time    4.0264: real time    4.0330
    CHARGE:  cpu time    1.2532: real time    1.2536
    --------------------------------------------
      LOOP:  cpu time   17.2490: real time   17.3874

 eigenvalue-minimisations  :     0
 total energy-change (2. order) :-0.1252123E+01  (-0.5215678E+00)
 number of electron     269.9999992 magnetization      16.6212571
 augmentation part       86.6160127 magnetization      11.3069133

 Free energy of the ion-electron system (eV)
  ---------------------------------------------------
  alpha Z        PSCENC =       798.38614055
  Ewald energy   TEWEN  =    -12901.57693327
  -Hartree energ DENC   =     -2462.29894816
  -exchange      EXHF   =         0.00000000
  -V(xc)+E(xc)   XCENC  =     -1000.68515804
  PAW double counting   =     20056.88259662   -18800.85475556
  entropy T*S    EENTRO =        -0.03227718
  eigenvalues    EBANDS =      1256.93008849
  atomic energy  EATOM  =     12697.67401269
  ---------------------------------------------------
  free energy    TOTEN  =      -355.57214495 eV

  energy without entropy =     -355.53986777  energy(sigma->0) =     -355.56138589


--------------------------------------------------------------------------------------------------------




--------------------------------------- Iteration      1(  16)  ---------------------------------------


    POTLOK:  cpu time    0.3925: real time    0.3926
    SETDIJ:  cpu time    0.4586: real time    0.4588
    TRIAL :  cpu time   11.1547: real time   11.2254
    CORREC:  cpu time    3.9979: real time    4.0466
    CHARGE:  cpu time    1.2473: real time    1.2502
    --------------------------------------------
      LOOP:  cpu time   17.2647: real time   17.3876

 eigenvalue-minimisations  :     0
 total energy-change (2. order) :-0.5207090E+00  (-0.2357138E+00)
 number of electron     269.9999992 magnetization      16.7439144
 augmentation part       87.1288320 magnetization      11.4052398

 Free energy of the ion-electron system (eV)
  ---------------------------------------------------
  alpha Z        PSCENC =       798.38614055
  Ewald energy   TEWEN  =    -12901.57693327
  -Hartree energ DENC   =     -2486.57543269
  -exchange      EXHF   =         0.00000000
  -V(xc)+E(xc)   XCENC  =      -999.67886597
  PAW double counting   =     19755.10866493   -18503.79103645
  entropy T*S    EENTRO =        -0.03156282
  eigenvalues    EBANDS =      1284.39287349
  atomic energy  EATOM  =     12697.67401269
  ---------------------------------------------------
  free energy    TOTEN  =      -356.09285390 eV

  energy without entropy =     -356.06129108  energy(sigma->0) =     -356.08233296


--------------------------------------------------------------------------------------------------------




--------------------------------------- Iteration      1(  17)  ---------------------------------------


    POTLOK:  cpu time    0.3928: real time    0.3929
    SETDIJ:  cpu time    0.4446: real time    0.4839
    TRIAL :  cpu time   11.1488: real time   11.2753
    CORREC:  cpu time    4.0053: real time    4.0523
    CHARGE:  cpu time    1.2584: real time    1.2691
    --------------------------------------------
      LOOP:  cpu time   17.2529: real time   17.4772

 eigenvalue-minimisations  :     0
 total energy-change (2. order) :-0.2375965E+00  (-0.2538143E+00)
 number of electron     269.9999992 magnetization      16.8040318
 augmentation part       87.2773371 magnetization      11.5566964

 Free energy of the ion-electron system (eV)
  ---------------------------------------------------
  alpha Z        PSCENC =       798.38614055
  Ewald energy   TEWEN  =    -12901.57693327
  -Hartree energ DENC   =     -2509.36440168
  -exchange      EXHF   =         0.00000000
  -V(xc)+E(xc)   XCENC  =      -998.72900145
  PAW double counting   =     19647.19078047   -18400.71584576
  entropy T*S    EENTRO =        -0.03173097
  eigenvalues    EBANDS =      1310.83636087
  atomic energy  EATOM  =     12697.67401269
  ---------------------------------------------------
  free energy    TOTEN  =      -356.33045041 eV

  energy without entropy =     -356.29871944  energy(sigma->0) =     -356.31987342


--------------------------------------------------------------------------------------------------------




--------------------------------------- Iteration      1(  18)  ---------------------------------------


    POTLOK:  cpu time    0.3922: real time    0.3923
    SETDIJ:  cpu time    1.3375: real time    1.3437
    TRIAL :  cpu time   11.1177: real time   11.2153
    CORREC:  cpu time    4.0361: real time    4.0479
    CHARGE:  cpu time    1.2739: real time    1.3331
    --------------------------------------------
      LOOP:  cpu time   18.1587: real time   18.3344

 eigenvalue-minimisations  :     0
 total energy-change (2. order) :-0.2538607E+00  (-0.1405942E+00)
 number of electron     269.9999992 magnetization      16.8497015
 augmentation part       87.0727567 magnetization      11.6455058

 Free energy of the ion-electron system (eV)
  ---------------------------------------------------
  alpha Z        PSCENC =       798.38614055
  Ewald energy   TEWEN  =    -12901.57693327
  -Hartree energ DENC   =     -2513.65749613
  -exchange      EXHF   =         0.00000000
  -V(xc)+E(xc)   XCENC  =      -998.20512992
  PAW double counting   =     19551.70693076   -18306.59136398
  entropy T*S    EENTRO =        -0.03225444
  eigenvalues    EBANDS =      1315.71125918
  atomic energy  EATOM  =     12697.67401269
  ---------------------------------------------------
  free energy    TOTEN  =      -356.58431109 eV

  energy without entropy =     -356.55205665  energy(sigma->0) =     -356.57355961


--------------------------------------------------------------------------------------------------------




--------------------------------------- Iteration      1(  19)  ---------------------------------------


    POTLOK:  cpu time    0.3940: real time    0.3941
    SETDIJ:  cpu time    0.4602: real time    0.4604
    TRIAL :  cpu time   11.1786: real time   11.2027
    CORREC:  cpu time    4.0088: real time    4.0208
    CHARGE:  cpu time    1.2430: real time    1.2435
    --------------------------------------------
      LOOP:  cpu time   17.2897: real time   17.3282

 eigenvalue-minimisations  :     0
 total energy-change (2. order) :-0.1402071E+00  (-0.6232234E-01)
 number of electron     269.9999992 magnetization      16.9042206
 augmentation part       86.8421325 magnetization      11.6926420

 Free energy of the ion-electron system (eV)
  ---------------------------------------------------
  alpha Z        PSCENC =       798.38614055
  Ewald energy   TEWEN  =    -12901.57693327
  -Hartree energ DENC   =     -2501.85713682
  -exchange      EXHF   =         0.00000000
  -V(xc)+E(xc)   XCENC  =      -998.38283472
  PAW double counting   =     19501.11441526   -18253.75842486
  entropy T*S    EENTRO =        -0.03240188
  eigenvalues    EBANDS =      1301.70849737
  atomic energy  EATOM  =     12697.67401269
  ---------------------------------------------------
  free energy    TOTEN  =      -356.72451823 eV

  energy without entropy =     -356.69211635  energy(sigma->0) =     -356.71371761


--------------------------------------------------------------------------------------------------------




--------------------------------------- Iteration      1(  20)  ---------------------------------------


    POTLOK:  cpu time    0.3917: real time    0.3918
    SETDIJ:  cpu time    0.4156: real time    0.5073
    TRIAL :  cpu time   11.1471: real time   11.1869
    CORREC:  cpu time    3.9978: real time    4.0416
    CHARGE:  cpu time    1.2232: real time    1.3255
    --------------------------------------------
      LOOP:  cpu time   17.1805: real time   17.4613

 eigenvalue-minimisations  :     0
 total energy-change (2. order) :-0.6232810E-01  (-0.6054359E-01)
 number of electron     269.9999992 magnetization      16.9596942
 augmentation part       86.8077467 magnetization      11.7634650

 Free energy of the ion-electron system (eV)
  ---------------------------------------------------
  alpha Z        PSCENC =       798.38614055
  Ewald energy   TEWEN  =    -12901.57693327
  -Hartree energ DENC   =     -2491.54548093
  -exchange      EXHF   =         0.00000000
  -V(xc)+E(xc)   XCENC  =      -998.62172734
  PAW double counting   =     19481.08241191   -18231.52577245
  entropy T*S    EENTRO =        -0.03263241
  eigenvalues    EBANDS =      1289.37290439
  atomic energy  EATOM  =     12697.67401269
  ---------------------------------------------------
  free energy    TOTEN  =      -356.78684633 eV

  energy without entropy =     -356.75421392  energy(sigma->0) =     -356.77596886


--------------------------------------------------------------------------------------------------------




--------------------------------------- Iteration      1(  21)  ---------------------------------------


    POTLOK:  cpu time    0.3924: real time    0.3925
    SETDIJ:  cpu time    0.4784: real time    0.4787
    TRIAL :  cpu time   11.9111: real time   12.1078
    CORREC:  cpu time    4.6567: real time    4.6987
    CHARGE:  cpu time    1.2392: real time    1.2575
    --------------------------------------------
      LOOP:  cpu time   18.6792: real time   18.9381

 eigenvalue-minimisations  :     0
 total energy-change (2. order) :-0.6046752E-01  (-0.3231314E-01)
 number of electron     269.9999992 magnetization      17.0119871
 augmentation part       86.9313656 magnetization      11.8249511

 Free energy of the ion-electron system (eV)
  ---------------------------------------------------
  alpha Z        PSCENC =       798.38614055
  Ewald energy   TEWEN  =    -12901.57693327
  -Hartree energ DENC   =     -2492.48996804
  -exchange      EXHF   =         0.00000000
  -V(xc)+E(xc)   XCENC  =      -998.43643755
  PAW double counting   =     19487.16132314   -18237.78214156
  entropy T*S    EENTRO =        -0.03235734
  eigenvalues    EBANDS =      1290.24932260
  atomic energy  EATOM  =     12697.67401269
  ---------------------------------------------------
  free energy    TOTEN  =      -356.84731386 eV

  energy without entropy =     -356.81495652  energy(sigma->0) =     -356.83652808


--------------------------------------------------------------------------------------------------------




--------------------------------------- Iteration      1(  22)  ---------------------------------------


    POTLOK:  cpu time    0.3913: real time    0.3913
    SETDIJ:  cpu time    0.4802: real time    0.4802
    TRIAL :  cpu time   11.0912: real time   11.1651
    CORREC:  cpu time    4.0544: real time    4.0588
    CHARGE:  cpu time    1.2603: real time    1.2603
    --------------------------------------------
      LOOP:  cpu time   17.2815: real time   17.3598

 eigenvalue-minimisations  :     0
 total energy-change (2. order) :-0.3238114E-01  (-0.1048681E-01)
 number of electron     269.9999992 magnetization      17.0433369
 augmentation part       86.9835480 magnetization      11.8524784

 Free energy of the ion-electron system (eV)
  ---------------------------------------------------
  alpha Z        PSCENC =       798.38614055
  Ewald energy   TEWEN  =    -12901.57693327
  -Hartree energ DENC   =     -2500.66088245
  -exchange      EXHF   =         0.00000000
  -V(xc)+E(xc)   XCENC  =      -998.06055749
  PAW double counting   =     19504.85262652   -18257.16972693
  entropy T*S    EENTRO =        -0.03242724
  eigenvalues    EBANDS =      1299.70798272
  atomic energy  EATOM  =     12697.67401269
  ---------------------------------------------------
  free energy    TOTEN  =      -356.87969500 eV

  energy without entropy =     -356.84726776  energy(sigma->0) =     -356.86888592


--------------------------------------------------------------------------------------------------------




--------------------------------------- Iteration      1(  23)  ---------------------------------------


    POTLOK:  cpu time    0.3920: real time    0.3920
    SETDIJ:  cpu time    0.4559: real time    0.4559
    TRIAL :  cpu time   11.1063: real time   11.2115
    CORREC:  cpu time    4.0219: real time    4.0423
    CHARGE:  cpu time    1.2468: real time    1.2468
    --------------------------------------------
      LOOP:  cpu time   17.2272: real time   17.3542

 eigenvalue-minimisations  :     0
 total energy-change (2. order) :-0.1049914E-01  (-0.1410099E-01)
 number of electron     269.9999992 magnetization      17.1148233
 augmentation part       86.9922144 magnetization      11.9039325

 Free energy of the ion-electron system (eV)
  ---------------------------------------------------
  alpha Z        PSCENC =       798.38614055
  Ewald energy   TEWEN  =    -12901.57693327
  -Hartree energ DENC   =     -2503.80416830
  -exchange      EXHF   =         0.00000000
  -V(xc)+E(xc)   XCENC  =      -997.90752474
  PAW double counting   =     19510.30473519   -18263.29217813
  entropy T*S    EENTRO =        -0.03217996
  eigenvalues    EBANDS =      1303.35814910
  atomic energy  EATOM  =     12697.67401269
  ---------------------------------------------------
  free energy    TOTEN  =      -356.89019414 eV

  energy without entropy =     -356.85801418  energy(sigma->0) =     -356.87946749


--------------------------------------------------------------------------------------------------------




--------------------------------------- Iteration      1(  24)  ---------------------------------------


    POTLOK:  cpu time    0.3922: real time    0.3922
    SETDIJ:  cpu time    0.5119: real time    0.5119
    TRIAL :  cpu time   11.1028: real time   11.2768
    CORREC:  cpu time    4.9838: real time    5.0367
    CHARGE:  cpu time    1.2242: real time    1.2705
    --------------------------------------------
      LOOP:  cpu time   18.2279: real time   18.5023

 eigenvalue-minimisations  :     0
 total energy-change (2. order) :-0.1409609E-01  (-0.1396018E-01)
 number of electron     269.9999992 magnetization      17.1793208
 augmentation part       86.9422779 magnetization      11.9542475

 Free energy of the ion-electron system (eV)
  ---------------------------------------------------
  alpha Z        PSCENC =       798.38614055
  Ewald energy   TEWEN  =    -12901.57693327
  -Hartree energ DENC   =     -2504.34079723
  -exchange      EXHF   =         0.00000000
  -V(xc)+E(xc)   XCENC  =      -997.81483989
  PAW double counting   =     19508.23977592   -18261.33136424
  entropy T*S    EENTRO =        -0.03180141
  eigenvalues    EBANDS =      1303.89189520
  atomic energy  EATOM  =     12697.67401269
  ---------------------------------------------------
  free energy    TOTEN  =      -356.90429023 eV

  energy without entropy =     -356.87248882  energy(sigma->0) =     -356.89368976


--------------------------------------------------------------------------------------------------------




--------------------------------------- Iteration      1(  25)  ---------------------------------------


    POTLOK:  cpu time    0.3933: real time    0.3933
    SETDIJ:  cpu time    0.4699: real time    0.4698
    TRIAL :  cpu time   11.1059: real time   11.1703
    CORREC:  cpu time    4.0235: real time    4.0854
    CHARGE:  cpu time    1.2378: real time    1.2402
    --------------------------------------------
      LOOP:  cpu time   17.2581: real time   17.3883

 eigenvalue-minimisations  :     0
 total energy-change (2. order) :-0.1396996E-01  (-0.1082156E-01)
 number of electron     269.9999992 magnetization      17.2584288
 augmentation part       86.9271662 magnetization      12.0152720

 Free energy of the ion-electron system (eV)
  ---------------------------------------------------
  alpha Z        PSCENC =       798.38614055
  Ewald energy   TEWEN  =    -12901.57693327
[...]
   45       -0.016  -0.016  -2.295  -2.326
   46        0.019   0.017   2.392   2.429
   47        0.025   0.027   2.386   2.438
   48       -0.014  -0.020  -2.288  -2.322
   49        0.017   0.021   2.372   2.410
   50        0.014   0.015   2.351   2.380
   51       -0.016  -0.016  -2.294  -2.326
   52        0.017   0.022   2.378   2.416
   53        0.014   0.015   2.352   2.381
   54       -0.016  -0.016  -2.303  -2.335
--------------------------------------------------
tot         -0.016  -0.083  17.301  17.201
 
    FORLOC:  cpu time    0.0586: real time    0.0587
    FORNL :  cpu time   17.7210: real time   17.8492
    STRESS:  cpu time   26.5084: real time   26.7974
    FORCOR:  cpu time    0.4404: real time    0.4404
    OFIELD:  cpu time    0.0021: real time    0.0021

  FORCE on cell =-STRESS in cart. coord.  units (eV):
  Direction    XX          YY          ZZ          XY          YZ          ZX
  --------------------------------------------------------------------------------------
  Alpha Z   798.38614   798.38614   798.38614
  Ewald   -4053.61603 -4053.61603 -4794.40593    -0.00000    -0.00000    -0.00000
  Hartree  1084.81423  1084.81423   331.99299    -0.00000    -0.00000    -0.00000
  E(xc)   -1141.91409 -1141.91409 -1139.81660    -0.00000     0.00000     0.00000
  Local     367.85479   367.85479  1907.22380    -0.00000     0.00000     0.00000
  n-local  -172.15092  -169.65850  -175.49569     0.27425    -0.16709    -0.28671
  augment   785.11622   785.11622   766.94324     0.00000     0.00001     0.00001
  Kinetic  2328.49869  2344.02321  2307.41965    -2.39364    -1.69021    -1.74414
  Fock        0.00000     0.00000     0.00000     0.00000     0.00000     0.00000
  -------------------------------------------------------------------------------------
  Total       5.99750     5.99750     2.24759     0.00000     0.00000     0.00000
  in kB      13.53557    13.53557     5.07252     0.00000     0.00000     0.00000
  external pressure =       10.71 kB  Pullay stress =        0.00 kB


 VOLUME and BASIS-vectors are now :
 -----------------------------------------------------------------------------
  energy-cutoff  :      404.80
  volume of cell :      709.91
      direct lattice vectors                 reciprocal lattice vectors
     8.250148166  0.000000000  0.000000000     0.121209944  0.000000000  0.000000000
     0.000000000  8.250148166  0.000000000     0.000000000  0.121209944  0.000000000
     0.000000000  0.000000000 10.429911392     0.000000000  0.000000000  0.095878092

  length of vectors
     8.250148166  8.250148166 10.429911392     0.121209944  0.121209944  0.095878092


 FORCES acting on ions:
    Electron-Ion                     Ewald-Force                    Non-Local-Force
 -----------------------------------------------------------------------------------------------
   -.578E-02 -.578E-02 -.400E-01   -.239E-08 -.239E-08 -.210E-08   0.972E-02 0.972E-02 0.175E-01
   -.479E-02 -.479E-02 -.254E-01   -.239E-08 -.239E-08 0.171E-08   -.180E-01 -.180E-01 -.197E-01
   -.106E+00 -.106E+00 0.124E+00   -.239E-08 -.239E-08 0.861E-08   0.879E-01 0.879E-01 -.422E-01
   -.578E-02 0.578E-02 -.400E-01   -.239E-08 -.802E-09 -.210E-08   0.972E-02 -.972E-02 0.175E-01
   -.479E-02 0.479E-02 -.254E-01   -.239E-08 -.802E-09 0.171E-08   -.180E-01 0.180E-01 -.197E-01
   -.106E+00 0.106E+00 0.124E+00   -.239E-08 -.802E-09 0.861E-08   0.879E-01 -.879E-01 -.422E-01
   -.952E-02 -.329E-08 -.142E+00   -.239E-08 0.631E-08 -.210E-08   0.440E-02 -.542E-19 0.602E-01
   0.285E-01 -.328E-08 0.167E-01   -.239E-08 0.631E-08 0.171E-08   -.106E-02 0.271E-19 0.127E-01
   0.162E-01 -.329E-08 0.727E-01   -.239E-08 0.631E-08 0.861E-08   -.736E-02 0.000E+00 -.380E-01
   0.578E-02 -.578E-02 -.400E-01   -.802E-09 -.239E-08 -.210E-08   -.972E-02 0.972E-02 0.175E-01
   0.479E-02 -.479E-02 -.254E-01   -.802E-09 -.239E-08 0.171E-08   0.180E-01 -.180E-01 -.197E-01
   0.106E+00 -.106E+00 0.124E+00   -.803E-09 -.239E-08 0.861E-08   -.879E-01 0.879E-01 -.422E-01
   0.578E-02 0.578E-02 -.400E-01   -.802E-09 -.802E-09 -.210E-08   -.972E-02 -.972E-02 0.175E-01
   0.479E-02 0.479E-02 -.254E-01   -.802E-09 -.802E-09 0.171E-08   0.180E-01 0.180E-01 -.197E-01
   0.106E+00 0.106E+00 0.124E+00   -.803E-09 -.802E-09 0.861E-08   -.879E-01 -.879E-01 -.422E-01
   0.952E-02 -.329E-08 -.142E+00   -.802E-09 0.631E-08 -.210E-08   -.440E-02 0.000E+00 0.602E-01
   -.285E-01 -.328E-08 0.167E-01   -.802E-09 0.631E-08 0.171E-08   0.106E-02 0.136E-19 0.127E-01
   -.162E-01 -.329E-08 0.727E-01   -.803E-09 0.631E-08 0.861E-08   0.736E-02 0.108E-18 -.380E-01
   -.329E-08 -.952E-02 -.142E+00   0.631E-08 -.239E-08 -.210E-08   -.284E-19 0.440E-02 0.602E-01
   -.328E-08 0.285E-01 0.167E-01   0.631E-08 -.239E-08 0.171E-08   -.108E-18 -.106E-02 0.127E-01
   -.329E-08 0.162E-01 0.727E-01   0.631E-08 -.239E-08 0.861E-08   0.542E-19 -.736E-02 -.380E-01
   -.329E-08 0.952E-02 -.142E+00   0.631E-08 -.802E-09 -.210E-08   0.542E-19 -.440E-02 0.602E-01
   -.328E-08 -.285E-01 0.167E-01   0.631E-08 -.802E-09 0.171E-08   0.217E-18 0.106E-02 0.127E-01
   -.329E-08 -.162E-01 0.727E-01   0.631E-08 -.802E-09 0.861E-08   0.163E-18 0.736E-02 -.380E-01
   -.329E-08 -.329E-08 -.948E-01   0.631E-08 0.631E-08 -.210E-08   0.000E+00 0.678E-20 0.628E-01
   -.329E-08 -.329E-08 -.158E-01   0.631E-08 0.631E-08 0.171E-08   0.000E+00 -.220E-19 0.394E-01
   -.329E-08 -.329E-08 0.111E+00   0.631E-08 0.631E-08 0.861E-08   0.000E+00 -.949E-19 -.835E-01
   0.486E-08 0.486E-08 -.259E+00   -.169E-07 -.169E-07 -.180E-07   -.867E-18 -.347E-17 0.256E+00
   0.476E-08 0.476E-08 0.281E+00   -.169E-07 -.169E-07 -.170E-08   0.000E+00 0.000E+00 -.247E+00
   0.482E-08 0.482E-08 -.265E+00   -.169E-07 -.169E-07 0.115E-07   0.000E+00 0.813E-19 0.411E+00
   0.483E-08 -.594E-01 0.479E-01   -.169E-07 0.802E-09 -.180E-07   0.000E+00 0.757E-02 -.116E+00
   0.488E-08 0.309E+00 -.568E-01   -.169E-07 0.802E-09 -.170E-08   -.325E-18 -.157E+00 0.699E-01
   0.486E-08 0.535E-01 0.144E+00   -.169E-07 0.802E-09 0.115E-07   -.217E-18 -.115E-01 -.140E+00
   0.483E-08 0.594E-01 0.479E-01   -.169E-07 0.130E-07 -.180E-07   0.217E-18 -.757E-02 -.116E+00
   0.488E-08 -.309E+00 -.568E-01   -.169E-07 0.130E-07 -.170E-08   0.000E+00 0.157E+00 0.699E-01
   0.486E-08 -.535E-01 0.144E+00   -.169E-07 0.130E-07 0.115E-07   0.000E+00 0.115E-01 -.140E+00
   -.594E-01 0.483E-08 0.479E-01   0.802E-09 -.169E-07 -.180E-07   0.757E-02 0.542E-18 -.116E+00
   0.309E+00 0.488E-08 -.568E-01   0.802E-09 -.169E-07 -.170E-08   -.157E+00 -.434E-18 0.699E-01
   0.535E-01 0.486E-08 0.144E+00   0.802E-09 -.169E-07 0.115E-07   -.115E-01 -.325E-18 -.140E+00
   -.295E-01 -.295E-01 -.566E-01   0.802E-09 0.802E-09 -.180E-07   0.607E-01 0.607E-01 0.237E-03
   -.110E+00 -.110E+00 0.415E-01   0.802E-09 0.802E-09 -.170E-08   0.118E+00 0.118E+00 0.267E-01
   -.174E-01 -.174E-01 -.127E-01   0.802E-09 0.802E-09 0.115E-07   -.443E-02 -.443E-02 0.265E-02
   -.295E-01 0.295E-01 -.566E-01   0.802E-09 0.130E-07 -.180E-07   0.607E-01 -.607E-01 0.237E-03
   -.110E+00 0.110E+00 0.415E-01   0.802E-09 0.130E-07 -.170E-08   0.118E+00 -.118E+00 0.267E-01
   -.174E-01 0.174E-01 -.127E-01   0.802E-09 0.130E-07 0.115E-07   -.443E-02 0.443E-02 0.265E-02
   0.594E-01 0.483E-08 0.479E-01   0.130E-07 -.169E-07 -.180E-07   -.757E-02 0.108E-18 -.116E+00
   -.309E+00 0.488E-08 -.568E-01   0.130E-07 -.169E-07 -.170E-08   0.157E+00 0.867E-18 0.699E-01
   -.535E-01 0.486E-08 0.144E+00   0.130E-07 -.169E-07 0.115E-07   0.115E-01 0.000E+00 -.140E+00
   0.295E-01 -.295E-01 -.566E-01   0.130E-07 0.802E-09 -.180E-07   -.607E-01 0.607E-01 0.237E-03
   0.110E+00 -.110E+00 0.415E-01   0.130E-07 0.802E-09 -.170E-08   -.118E+00 0.118E+00 0.267E-01
   0.174E-01 -.174E-01 -.127E-01   0.130E-07 0.802E-09 0.115E-07   0.443E-02 -.443E-02 0.265E-02
   0.295E-01 0.295E-01 -.566E-01   0.130E-07 0.130E-07 -.180E-07   -.607E-01 -.607E-01 0.237E-03
   0.110E+00 0.110E+00 0.415E-01   0.130E-07 0.130E-07 -.170E-08   -.118E+00 -.118E+00 0.267E-01
   0.174E-01 0.174E-01 -.127E-01   0.130E-07 0.130E-07 0.115E-07   0.443E-02 0.443E-02 0.265E-02
 -----------------------------------------------------------------------------------------------
   -.404E-07 -.404E-07 0.226E+00   -.614E-13 -.142E-13 0.128E-13   -.226E-16 -.694E-17 -.226E+00
 
 
 POSITION                                       TOTAL-FORCE (eV/Angst)
 -----------------------------------------------------------------------------------
      0.00000      0.00000      0.00000         0.003138      0.003138     -0.023822
      0.00000      0.00000      3.47664        -0.020697     -0.020697     -0.042168
      0.00000      0.00000      6.95327        -0.025744     -0.025744      0.084472
      0.00000      2.75005      0.00000         0.003138     -0.003138     -0.023822
      0.00000      2.75005      3.47664        -0.020697      0.020697     -0.042168
      0.00000      2.75005      6.95327        -0.025744      0.025744      0.084472
      0.00000      5.50010      0.00000        -0.005441     -0.000000     -0.087573
      0.00000      5.50010      3.47664         0.028034     -0.000000      0.028730
      0.00000      5.50010      6.95327         0.009905     -0.000000      0.037862
      2.75005      0.00000      0.00000        -0.003138      0.003138     -0.023822
      2.75005      0.00000      3.47664         0.020697     -0.020697     -0.042168
      2.75005      0.00000      6.95327         0.025744     -0.025744      0.084472
      2.75005      2.75005      0.00000        -0.003138     -0.003138     -0.023822
      2.75005      2.75005      3.47664         0.020697      0.020697     -0.042168
      2.75005      2.75005      6.95327         0.025744      0.025744      0.084472
      2.75005      5.50010      0.00000         0.005441     -0.000000     -0.087573
      2.75005      5.50010      3.47664        -0.028034     -0.000000      0.028730
      2.75005      5.50010      6.95327        -0.009905     -0.000000      0.037862
      5.50010      0.00000      0.00000        -0.000000     -0.005441     -0.087573
      5.50010      0.00000      3.47664        -0.000000      0.028034      0.028730
      5.50010      0.00000      6.95327        -0.000000      0.009905      0.037862
      5.50010      2.75005      0.00000        -0.000000      0.005441     -0.087573
      5.50010      2.75005      3.47664        -0.000000     -0.028034      0.028730
      5.50010      2.75005      6.95327        -0.000000     -0.009905      0.037862
      5.50010      5.50010      0.00000        -0.000000     -0.000000     -0.037302
      5.50010      5.50010      3.47664        -0.000000     -0.000000      0.020266
      5.50010      5.50010      6.95327        -0.000000     -0.000000      0.035369
      1.37502      1.37502      1.73832        -0.000000     -0.000000     -0.007025
      1.37502      1.37502      5.21496        -0.000000     -0.000000      0.040473
      1.37502      1.37502      8.69159        -0.000000     -0.000000      0.136969
      1.37502      4.12507      1.73832        -0.000000     -0.049761     -0.059160
      1.37502      4.12507      5.21496        -0.000000      0.156239      0.007835
      1.37502      4.12507      8.69159        -0.000000      0.041061      0.006649
      1.37502      6.87512      1.73832        -0.000000      0.049761     -0.059160
      1.37502      6.87512      5.21496        -0.000000     -0.156239      0.007835
      1.37502      6.87512      8.69159        -0.000000     -0.041061      0.006649
      4.12507      1.37502      1.73832        -0.049761     -0.000000     -0.059160
      4.12507      1.37502      5.21496         0.156239     -0.000000      0.007835
      4.12507      1.37502      8.69159         0.041061     -0.000000      0.006649
      4.12507      4.12507      1.73832         0.030623      0.030623     -0.048809
      4.12507      4.12507      5.21496         0.005712      0.005712      0.060439
      4.12507      4.12507      8.69159        -0.022067     -0.022067     -0.011643
      4.12507      6.87512      1.73832         0.030623     -0.030623     -0.048809
      4.12507      6.87512      5.21496         0.005712     -0.005712      0.060439
      4.12507      6.87512      8.69159        -0.022067      0.022067     -0.011643
      6.87512      1.37502      1.73832         0.049761     -0.000000     -0.059160
      6.87512      1.37502      5.21496        -0.156239     -0.000000      0.007835
      6.87512      1.37502      8.69159        -0.041061     -0.000000      0.006649
      6.87512      4.12507      1.73832        -0.030623      0.030623     -0.048809
      6.87512      4.12507      5.21496        -0.005712      0.005712      0.060439
      6.87512      4.12507      8.69159         0.022067     -0.022067     -0.011643
      6.87512      6.87512      1.73832        -0.030623     -0.030623     -0.048809
      6.87512      6.87512      5.21496        -0.005712     -0.005712      0.060439
      6.87512      6.87512      8.69159         0.022067      0.022067     -0.011643
 -----------------------------------------------------------------------------------
    total drift:                               -0.000000     -0.000000     -0.000070


--------------------------------------------------------------------------------------------------------



  FREE ENERGIE OF THE ION-ELECTRON SYSTEM (eV)
  ---------------------------------------------------
  free  energy   TOTEN  =      -356.94601922 eV

  energy  without entropy=     -356.91497918  energy(sigma->0) =     -356.93567254
 


--------------------------------------------------------------------------------------------------------


    POTLOK:  cpu time    2.6656: real time    2.6865


--------------------------------------------------------------------------------------------------------


     LOOP+:  cpu time 1420.3193: real time 1433.1739
    4ORBIT:  cpu time    0.0000: real time    0.0000
 


 total charge     
 
# of ion       s       p       d       tot
------------------------------------------
    1        0.405   0.427   0.000   0.832
    2        0.404   0.430   0.000   0.834
    3        0.405   0.429   0.000   0.834
    4        0.405   0.427   0.000   0.832
    5        0.404   0.430   0.000   0.834
    6        0.405   0.428   0.000   0.834
    7        0.405   0.427   0.000   0.832
    8        0.404   0.429   0.000   0.833
    9        0.405   0.427   0.000   0.832
   10        0.405   0.427   0.000   0.832
   11        0.404   0.430   0.000   0.834
   12        0.406   0.428   0.000   0.834
   13        0.405   0.427   0.000   0.832
   14        0.404   0.429   0.000   0.834
   15        0.406   0.428   0.000   0.834
   16        0.405   0.427   0.000   0.832
   17        0.404   0.429   0.000   0.833
   18        0.405   0.427   0.000   0.832
   19        0.405   0.427   0.000   0.833
   20        0.404   0.429   0.000   0.833
   21        0.405   0.426   0.000   0.832
   22        0.405   0.427   0.000   0.833
   23        0.404   0.429   0.000   0.833
   24        0.405   0.426   0.000   0.832
   25        0.405   0.428   0.000   0.833
   26        0.404   0.429   0.000   0.833
   27        0.405   0.427   0.000   0.832
   28        0.331   0.353   5.136   5.820
   29        0.333   0.352   5.139   5.825
   30        0.335   0.348   5.138   5.821
   31        0.333   0.350   5.138   5.821
   32        0.333   0.358   5.099   5.790
   33        0.334   0.352   5.135   5.820
   34        0.333   0.351   5.132   5.816
   35        0.333   0.358   5.098   5.789
   36        0.334   0.352   5.127   5.813
   37        0.333   0.350   5.147   5.829
   38        0.334   0.354   5.154   5.842
   39        0.334   0.352   5.142   5.829
   40        0.333   0.351   5.139   5.823
   41        0.332   0.352   5.141   5.825
   42        0.335   0.350   5.139   5.824
   43        0.333   0.352   5.133   5.818
   44        0.332   0.352   5.133   5.817
   45        0.335   0.350   5.138   5.823
   46        0.333   0.350   5.133   5.816
   47        0.334   0.354   5.156   5.844
   48        0.334   0.353   5.129   5.816
   49        0.334   0.352   5.137   5.822
   50        0.332   0.352   5.135   5.819
   51        0.334   0.351   5.135   5.820
   52        0.333   0.351   5.133   5.818
   53        0.332   0.352   5.141   5.825
   54        0.335   0.350   5.132   5.816
--------------------------------------------------
tot         19.933  21.056 138.640 179.628
 


 magnetization (x)
 
# of ion       s       p       d       tot
------------------------------------------
    1        0.000   0.001   0.000   0.001
    2       -0.017  -0.029   0.000  -0.046
    3        0.004   0.009   0.000   0.013
    4       -0.000   0.002   0.000   0.002
    5       -0.017  -0.030   0.000  -0.047
    6        0.004   0.009   0.000   0.014
    7        0.000  -0.000   0.000  -0.000
    8       -0.021  -0.036   0.000  -0.057
    9        0.001   0.003   0.000   0.004
   10       -0.000   0.002   0.000   0.002
   11       -0.017  -0.030   0.000  -0.047
   12        0.004   0.009   0.000   0.014
   13       -0.000   0.001   0.000   0.001
   14       -0.017  -0.030   0.000  -0.047
   15        0.004   0.010   0.000   0.014
   16       -0.000  -0.000   0.000  -0.000
   17       -0.021  -0.036   0.000  -0.057
   18        0.001   0.003   0.000   0.004
   19        0.000  -0.001   0.000  -0.001
   20       -0.022  -0.037   0.000  -0.058
   21        0.001   0.002   0.000   0.003
   22       -0.000  -0.000   0.000  -0.000
   23       -0.022  -0.037   0.000  -0.059
   24        0.001   0.002   0.000   0.002
   25       -0.000   0.002   0.000   0.002
   26       -0.023  -0.039   0.000  -0.061
   27       -0.000   0.001   0.000   0.001
   28        0.012   0.022   2.202   2.236
   29       -0.029  -0.024  -2.252  -2.306
   30       -0.020  -0.014  -2.386  -2.420
   31        0.019   0.018   2.377   2.414
   32        0.024   0.027   2.414   2.465
   33       -0.013  -0.019  -2.270  -2.303
   34        0.020   0.018   2.387   2.425
   35        0.024   0.027   2.413   2.464
   36       -0.014  -0.019  -2.284  -2.317
   37        0.019   0.018   2.375   2.411
   38        0.025   0.026   2.388   2.440
   39       -0.014  -0.020  -2.270  -2.304
   40        0.017   0.021   2.369   2.407
   41        0.014   0.015   2.352   2.381
   42       -0.016  -0.016  -2.294  -2.325
   43        0.017   0.021   2.375   2.413
   44        0.014   0.014   2.353   2.381
   45       -0.016  -0.016  -2.295  -2.326
   46        0.019   0.017   2.392   2.429
   47        0.025   0.027   2.386   2.438
   48       -0.014  -0.020  -2.288  -2.322
   49        0.017   0.021   2.372   2.410
   50        0.014   0.015   2.351   2.380
   51       -0.016  -0.016  -2.294  -2.326
   52        0.017   0.022   2.378   2.416
   53        0.014   0.015   2.352   2.381
   54       -0.016  -0.016  -2.303  -2.335
--------------------------------------------------
tot         -0.016  -0.083  17.301  17.201
 

 total amount of memory used by VASP MPI-rank0   626513. kBytes
=======================================================================

   base      :      30000. kBytes
   nonl-proj :      19946. kBytes
   fftplans  :      31580. kBytes
   grid      :      21385. kBytes
   one-center:        435. kBytes
   wavefun   :     523167. kBytes
 
  
  
 General timing and accounting informations for this job:
 ========================================================
  
                  Total CPU time used (sec):     1444.421
                            User time (sec):     1422.665
                          System time (sec):       21.756
                         Elapsed time (sec):     1459.863
  
                   Maximum memory used (kb):      783304.
                   Average memory used (kb):           0.
  
                          Minor page faults:       653581
                          Major page faults:           16
                 Voluntary context switches:         2798
