 vasp.5.4.4.18Apr17-6-g9f103f2a35 (build Dec 20 2018 12:05:58) complex          
  
 executed on             LinuxIFC date 2019.06.20  22:40:26
 running on   32 total cores
 distrk:  each k-point on    8 cores,    4 groups
 distr:  one band on NCORES_PER_BAND=   4 cores,    2 groups


--------------------------------------------------------------------------------------------------------


 INCAR:
 POTCAR:    PAW_PBE Al 04Jan2001                  
 POTCAR:    PAW_PBE Mn 06Sep2000                  

 ----------------------------------------------------------------------------- 
|                                                                             |
|           W    W    AA    RRRRR   N    N  II  N    N   GGGG   !!!           |
|           W    W   A  A   R    R  NN   N  II  NN   N  G    G  !!!           |
|           W    W  A    A  R    R  N N  N  II  N N  N  G       !!!           |
|           W WW W  AAAAAA  RRRRR   N  N N  II  N  N N  G  GGG   !            |
|           WW  WW  A    A  R   R   N   NN  II  N   NN  G    G                |
|           W    W  A    A  R    R  N    N  II  N    N   GGGG   !!!           |
|                                                                             |
|      You have enabled k-point parallelism (KPAR>1).                         |
|      This developmental code was originally  written by Paul Kent at ORNL,  |
|      and carefully double checked in Vienna.                                |
|      GW as well as linear response parallelism added by Martijn Marsman     |
|      and Georg Kresse.                                                      |
|      Carefully verify results versus KPAR=1.                                |
|      Report problems to Paul Kent and Vienna.                               |
|                                                                             |
 ----------------------------------------------------------------------------- 

 POTCAR:    PAW_PBE Al 04Jan2001                  
   VRHFIN =Al: s2p1                                                             
   LEXCH  = PE                                                                  
   EATOM  =    53.5387 eV,    3.9350 Ry                                         
                                                                                
   TITEL  = PAW_PBE Al 04Jan2001                                                
   LULTRA =        F    use ultrasoft PP ?                                      
   IUNSCR =        1    unscreen: 0-lin 1-nonlin 2-no                           
   RPACOR =    1.500    partial core radius                                     
   POMASS =   26.981; ZVAL   =    3.000    mass and valenz                      
   RCORE  =    1.900    outmost cutoff radius                                   
   RWIGS  =    2.650; RWIGS  =    1.402    wigner-seitz radius (au A)           
   ENMAX  =  240.300; ENMIN  =  180.225 eV                                      
   ICORE  =        2    local potential                                         
   LCOR   =        T    correct aug charges                                     
   LPAW   =        T    paw PP                                                  
   EAUG   =  291.052                                                            
   DEXC   =    0.000                                                            
   RMAX   =    1.939    core radius for proj-oper                               
   RAUG   =    1.300    factor for augmentation sphere                          
   RDEP   =    1.966    radius for radial grids                                 
   RDEPT  =    1.856    core radius for aug-charge                              
                                                                                
   Atomic configuration                                                         
    6 entries                                                                   
     n  l   j            E        occ.                                          
     1  0  0.50     -1511.1048   2.0000                                         
     2  0  0.50      -108.1629   2.0000                                         
     2  1  1.50       -69.6402   6.0000                                         
     3  0  0.50        -7.7528   2.0000                                         
     3  1  1.50        -2.7121   1.0000                                         
     3  2  2.50        -2.7212   0.0000                                         
   Description                                                                  
     l       E           TYP  RCUT    TYP  RCUT                                 
     0     -7.7528455     23  1.900                                             
     0     -3.3096929     23  1.900                                             
     1     -2.7120682     23  1.900                                             
     1     13.6058260     23  1.900                                             
     2     -2.7211652      7  1.900                                             
  local pseudopotential read in
  partial core-charges read in
  partial kinetic energy density read in
  atomic valenz-charges read in
  non local Contribution for L=           0  read in
    real space projection operators read in
  non local Contribution for L=           0  read in
    real space projection operators read in
  non local Contribution for L=           1  read in
    real space projection operators read in
  non local Contribution for L=           1  read in
    real space projection operators read in
    PAW grid and wavefunctions read in
 
   number of l-projection  operators is LMAX  =           4
   number of lm-projection operators is LMMAX =           8
 
 POTCAR:    PAW_PBE Mn 06Sep2000                  
   VRHFIN =Mn: d6 s1                                                            
   LEXCH  = PE                                                                  
   EATOM  =   416.7541 eV,   30.6306 Ry                                         
                                                                                
   TITEL  = PAW_PBE Mn 06Sep2000                                                
   LULTRA =        F    use ultrasoft PP ?                                      
   IUNSCR =        1    unscreen: 0-lin 1-nonlin 2-no                           
   RPACOR =    2.000    partial core radius                                     
   POMASS =   54.938; ZVAL   =    7.000    mass and valenz                      
   RCORE  =    2.300    outmost cutoff radius                                   
   RWIGS  =    2.500; RWIGS  =    1.323    wigner-seitz radius (au A)           
   ENMAX  =  269.864; ENMIN  =  202.398 eV                                      
   RCLOC  =    1.725    cutoff for local pot                                    
   LCOR   =        T    correct aug charges                                     
   LPAW   =        T    paw PP                                                  
   EAUG   =  500.711                                                            
   DEXC   =    0.000                                                            
   RMAX   =    2.343    core radius for proj-oper                               
   RAUG   =    1.300    factor for augmentation sphere                          
   RDEP   =    2.338    radius for radial grids                                 
   RDEPT  =    1.911    core radius for aug-charge                              
                                                                                
   Atomic configuration                                                         
    9 entries                                                                   
     n  l   j            E        occ.                                          
     1  0  0.50     -6424.8288   2.0000                                         
     2  0  0.50      -739.1154   2.0000                                         
     2  1  1.50      -625.3949   6.0000                                         
     3  0  0.50       -81.6100   2.0000                                         
     3  1  1.50       -50.4667   6.0000                                         
     3  2  2.50        -3.3745   6.0000                                         
     4  0  0.50        -4.1331   1.0000                                         
     4  1  0.50        -4.0817   0.0000                                         
     4  3  2.50        -1.3606   0.0000                                         
   Description                                                                  
     l       E           TYP  RCUT    TYP  RCUT                                 
     2     -3.3744664     23  2.300                                             
     2     -4.7350490     23  2.300                                             
     0     -4.1331408     23  2.300                                             
     0      7.6656614     23  2.300                                             
     1     -2.7211652     23  2.300                                             
     1     20.4087390     23  2.300                                             
  local pseudopotential read in
  partial core-charges read in
  partial kinetic energy density read in
  atomic valenz-charges read in
  non local Contribution for L=           2  read in
    real space projection operators read in
  non local Contribution for L=           2  read in
    real space projection operators read in
  non local Contribution for L=           0  read in
    real space projection operators read in
  non local Contribution for L=           0  read in
    real space projection operators read in
  non local Contribution for L=           1  read in
    real space projection operators read in
  non local Contribution for L=           1  read in
    real space projection operators read in
    PAW grid and wavefunctions read in
 
   number of l-projection  operators is LMAX  =           6
   number of lm-projection operators is LMMAX =          18
 

 ----------------------------------------------------------------------------- 
|                                                                             |
|  ADVICE TO THIS USER RUNNING 'VASP/VAMP'   (HEAR YOUR MASTER'S VOICE ...):  |
|                                                                             |
|      You have a (more or less) 'large supercell' and for larger cells       |
|      it might be more efficient to use real space projection opertators     |
|      So try LREAL= Auto  in the INCAR   file.                               |
|      Mind:          For very  accurate calculation you might also keep the  |
|      reciprocal projection scheme          (i.e. LREAL=.FALSE.)             |
|                                                                             |
 ----------------------------------------------------------------------------- 

  PAW_PBE Al 04Jan2001                  :
 energy of atom  1       EATOM=  -53.5387
 kinetic energy error for atom=    0.0005 (will be added to EATOM!!)
  PAW_PBE Mn 06Sep2000                  :
 energy of atom  2       EATOM= -416.7541
 kinetic energy error for atom=    0.0080 (will be added to EATOM!!)
 
 
 POSCAR: NewRef: 27, @ ['Mn', array([1.37502469, 
  positions in cartesian coordinates
  velocities in cartesian coordinates
  No initial velocities read in
 exchange correlation table for  LEXCH =        8
   RHO(1)=    0.500       N(1)  =     2000
   RHO(2)=  100.500       N(2)  =     4000
 


--------------------------------------------------------------------------------------------------------


 ion  position               nearest neighbor table
   1  0.000  0.000  0.000-  28 2.61  30 2.61  34 2.61  36 2.61  46 2.61  48 2.61  52 2.61  54 2.61
                             4 2.75  10 2.75   7 2.75  19 2.75
   2  0.000  0.000  0.333-  28 2.61  34 2.61  46 2.61  52 2.61  29 2.61  47 2.61  35 2.61  53 2.61
                             5 2.75  11 2.75   8 2.75  20 2.75
   3  0.000  0.000  0.667-  29 2.61  35 2.61  47 2.61  53 2.61  30 2.61  48 2.61  36 2.61  54 2.61
                             6 2.75  12 2.75   9 2.75  21 2.75
   4  0.000  0.333  0.000-  28 2.61  30 2.61  46 2.61  48 2.61  31 2.61  33 2.61  49 2.61  51 2.61
                            13 2.75   1 2.75   7 2.75  22 2.75
   5  0.000  0.333  0.333-  28 2.61  46 2.61  31 2.61  49 2.61  47 2.61  29 2.61  32 2.61  50 2.61
                            14 2.75   2 2.75   8 2.75  23 2.75
   6  0.000  0.333  0.667-  29 2.61  47 2.61  32 2.61  50 2.61  48 2.61  30 2.61  33 2.61  51 2.61
                            15 2.75   3 2.75   9 2.75  24 2.75
   7  0.000  0.667  0.000-  31 2.61  33 2.61  49 2.61  51 2.61  34 2.61  36 2.61  52 2.61  54 2.61
                             4 2.75  16 2.75   1 2.75  25 2.75
   8  0.000  0.667  0.333-  31 2.61  49 2.61  34 2.61  52 2.61  50 2.61  32 2.61  35 2.61  53 2.61
                             5 2.75  17 2.75   2 2.75  26 2.75
   9  0.000  0.667  0.667-  32 2.61  50 2.61  35 2.61  53 2.61  51 2.61  33 2.61  36 2.61  54 2.61
                             6 2.75  18 2.75   3 2.75  27 2.75
  10  0.333  0.000  0.000-  28 2.61  30 2.61  34 2.61  36 2.61  37 2.61  39 2.61  43 2.61  45 2.61
                            19 2.75   1 2.75  13 2.75  16 2.75
  11  0.333  0.000  0.333-  28 2.61  34 2.61  37 2.61  43 2.61  29 2.61  35 2.61  38 2.61  44 2.61
                            20 2.75   2 2.75  14 2.75  17 2.75
  12  0.333  0.000  0.667-  29 2.61  35 2.61  38 2.61  44 2.61  30 2.61  36 2.61  39 2.61  45 2.61
                            21 2.75   3 2.75  15 2.75  18 2.75
  13  0.333  0.333  0.000-  28 2.61  30 2.61  31 2.61  33 2.61  37 2.61  39 2.61  40 2.61  42 2.61
                             4 2.75  10 2.75  16 2.75  22 2.75
  14  0.333  0.333  0.333-  28 2.61  31 2.61  37 2.61  29 2.61  40 2.61  38 2.61  32 2.61  41 2.61
                             5 2.75  11 2.75  17 2.75  23 2.75
  15  0.333  0.333  0.667-  29 2.61  32 2.61  38 2.61  30 2.61  41 2.61  39 2.61  33 2.61  42 2.61
                             6 2.75  12 2.75  18 2.75  24 2.75
  16  0.333  0.667  0.000-  31 2.61  33 2.61  34 2.61  36 2.61  40 2.61  42 2.61  43 2.61  45 2.61
                            25 2.75   7 2.75  13 2.75  10 2.75
  17  0.333  0.667  0.333-  31 2.61  34 2.61  40 2.61  32 2.61  43 2.61  41 2.61  35 2.61  44 2.61
                            26 2.75   8 2.75  14 2.75  11 2.75
  18  0.333  0.667  0.667-  32 2.61  35 2.61  41 2.61  33 2.61  44 2.61  42 2.61  36 2.61  45 2.61
                            27 2.75   9 2.75  15 2.75  12 2.75
  19  0.667  0.000  0.000-  37 2.61  39 2.61  43 2.61  45 2.61  46 2.61  48 2.61  52 2.61  54 2.61
                            10 2.75  22 2.75   1 2.75  25 2.75
  20  0.667  0.000  0.333-  37 2.61  43 2.61  46 2.61  52 2.61  38 2.61  44 2.61  47 2.61  53 2.61
                            11 2.75  23 2.75   2 2.75  26 2.75
  21  0.667  0.000  0.667-  38 2.61  44 2.61  47 2.61  53 2.61  39 2.61  45 2.61  48 2.61  54 2.61
                            12 2.75  24 2.75   3 2.75  27 2.75
  22  0.667  0.333  0.000-  37 2.61  39 2.61  40 2.61  42 2.61  46 2.61  48 2.61  49 2.61  51 2.61
                            25 2.75  13 2.75  19 2.75   4 2.75
  23  0.667  0.333  0.333-  37 2.61  40 2.61  46 2.61  38 2.61  49 2.61  47 2.61  41 2.61  50 2.61
                            26 2.75  14 2.75  20 2.75   5 2.75
  24  0.667  0.333  0.667-  38 2.61  41 2.61  47 2.61  39 2.61  50 2.61  48 2.61  42 2.61  51 2.61
                            27 2.75  15 2.75  21 2.75   6 2.75
  25  0.667  0.667  0.000-  40 2.61  42 2.61  43 2.61  45 2.61  49 2.61  51 2.61  52 2.61  54 2.61
                            16 2.75  22 2.75  19 2.75   7 2.75
  26  0.667  0.667  0.333-  40 2.61  43 2.61  49 2.61  41 2.61  52 2.61  50 2.61  44 2.61  53 2.61
                            17 2.75  23 2.75  20 2.75   8 2.75
  27  0.667  0.667  0.667-  41 2.61  44 2.61  50 2.61  42 2.61  53 2.61  51 2.61  45 2.61  54 2.61
                            18 2.75  24 2.75  21 2.75   9 2.75
  28  0.167  0.167  0.167-  14 2.61  11 2.61   5 2.61  13 2.61   2 2.61  10 2.61   4 2.61   1 2.61
                            31 2.75  37 2.75  34 2.75  46 2.75
  29  0.167  0.167  0.500-  15 2.61  12 2.61   6 2.61  14 2.61   3 2.61  11 2.61   5 2.61   2 2.61
                            32 2.75  38 2.75  35 2.75  47 2.75
  30  0.167  0.167  0.833-  13 2.61  15 2.61  10 2.61  12 2.61   4 2.61   6 2.61   1 2.61   3 2.61
                            33 2.75  39 2.75  36 2.75  48 2.75
  31  0.167  0.500  0.167-  17 2.61  14 2.61   8 2.61  16 2.61   5 2.61  13 2.61   7 2.61   4 2.61
                            28 2.75  34 2.75  40 2.75  49 2.75
  32  0.167  0.500  0.500-  18 2.61  15 2.61   9 2.61  17 2.61   6 2.61  14 2.61   8 2.61   5 2.61
                            29 2.75  35 2.75  41 2.75  50 2.75
  33  0.167  0.500  0.833-  16 2.61  18 2.61  13 2.61  15 2.61   7 2.61   9 2.61   4 2.61   6 2.61
                            30 2.75  36 2.75  42 2.75  51 2.75
  34  0.167  0.833  0.167-  11 2.61  17 2.61   2 2.61   8 2.61  16 2.61  10 2.61   7 2.61   1 2.61
                            31 2.75  43 2.75  28 2.75  52 2.75
  35  0.167  0.833  0.500-  12 2.61  18 2.61   3 2.61   9 2.61  17 2.61  11 2.61   8 2.61   2 2.61
                            32 2.75  44 2.75  29 2.75  53 2.75
  36  0.167  0.833  0.833-  10 2.61  12 2.61  16 2.61  18 2.61   1 2.61   3 2.61   7 2.61   9 2.61
                            33 2.75  45 2.75  30 2.75  54 2.75
  37  0.500  0.167  0.167-  23 2.61  20 2.61  14 2.61  22 2.61  11 2.61  19 2.61  13 2.61  10 2.61
                            28 2.75  40 2.75  46 2.75  43 2.75
  38  0.500  0.167  0.500-  24 2.61  21 2.61  15 2.61  23 2.61  12 2.61  20 2.61  14 2.61  11 2.61
                            29 2.75  41 2.75  47 2.75  44 2.75
  39  0.500  0.167  0.833-  22 2.61  24 2.61  19 2.61  21 2.61  13 2.61  15 2.61  10 2.61  12 2.61
                            30 2.75  42 2.75  48 2.75  45 2.75
  40  0.500  0.500  0.167-  26 2.61  23 2.61  17 2.61  25 2.61  14 2.61  22 2.61  16 2.61  13 2.61
                            31 2.75  37 2.75  43 2.75  49 2.75
  41  0.500  0.500  0.500-  27 2.61  24 2.61  18 2.61  26 2.61  15 2.61  23 2.61  17 2.61  14 2.61
                            32 2.75  38 2.75  44 2.75  50 2.75
  42  0.500  0.500  0.833-  25 2.61  27 2.61  22 2.61  24 2.61  16 2.61  18 2.61  13 2.61  15 2.61
                            33 2.75  39 2.75  45 2.75  51 2.75
  43  0.500  0.833  0.167-  20 2.61  26 2.61  11 2.61  17 2.61  25 2.61  19 2.61  16 2.61  10 2.61
                            34 2.75  40 2.75  52 2.75  37 2.75
  44  0.500  0.833  0.500-  21 2.61  27 2.61  12 2.61  18 2.61  26 2.61  20 2.61  17 2.61  11 2.61
                            35 2.75  41 2.75  53 2.75  38 2.75
  45  0.500  0.833  0.833-  19 2.61  21 2.61  25 2.61  27 2.61  10 2.61  12 2.61  16 2.61  18 2.61
                            36 2.75  42 2.75  54 2.75  39 2.75
  46  0.833  0.167  0.167-   5 2.61  23 2.61  20 2.61   2 2.61  22 2.61   4 2.61  19 2.61   1 2.61
                            37 2.75  49 2.75  28 2.75  52 2.75
  47  0.833  0.167  0.500-   6 2.61  24 2.61  21 2.61   3 2.61  23 2.61   5 2.61  20 2.61   2 2.61
                            38 2.75  50 2.75  29 2.75  53 2.75
  48  0.833  0.167  0.833-   4 2.61   6 2.61  22 2.61  24 2.61  19 2.61  21 2.61   1 2.61   3 2.61
                            39 2.75  51 2.75  30 2.75  54 2.75
  49  0.833  0.500  0.167-   8 2.61  26 2.61  23 2.61   5 2.61  25 2.61   7 2.61  22 2.61   4 2.61
                            40 2.75  46 2.75  52 2.75  31 2.75
  50  0.833  0.500  0.500-   9 2.61  27 2.61  24 2.61   6 2.61  26 2.61   8 2.61  23 2.61   5 2.61
                            41 2.75  47 2.75  53 2.75  32 2.75
  51  0.833  0.500  0.833-   7 2.61   9 2.61  25 2.61  27 2.61  22 2.61  24 2.61   4 2.61   6 2.61
                            42 2.75  48 2.75  54 2.75  33 2.75
  52  0.833  0.833  0.167-   2 2.61   8 2.61  20 2.61  26 2.61  19 2.61   7 2.61  25 2.61   1 2.61
                            43 2.75  49 2.75  46 2.75  34 2.75
  53  0.833  0.833  0.500-   3 2.61   9 2.61  21 2.61  27 2.61  20 2.61   8 2.61  26 2.61   2 2.61
                            44 2.75  50 2.75  47 2.75  35 2.75
  54  0.833  0.833  0.833-   1 2.61   3 2.61   7 2.61   9 2.61  19 2.61  21 2.61  25 2.61  27 2.61
                            45 2.75  51 2.75  48 2.75  36 2.75
 
  LATTYP: Found a simple tetragonal cell.
 ALAT       =     8.2501481662
 C/A-ratio  =     1.2642089792
  
  Lattice vectors:
  
 A1 = (   8.2501481662,   0.0000000000,   0.0000000000)
 A2 = (   0.0000000000,   8.2501481662,   0.0000000000)
 A3 = (   0.0000000000,   0.0000000000,  10.4299113916)


Analysis of symmetry for initial positions (statically):
=====================================================================
 Subroutine PRICEL returns following result:
 
  LATTYP: Found a simple tetragonal cell.
 ALAT       =     2.7500493888
 C/A-ratio  =     1.2642089792
  
  Lattice vectors:
  
 A1 = (   2.7500493888,   0.0000000000,   0.0000000000)
 A2 = (   0.0000000000,   2.7500493888,   0.0000000000)
 A3 = (   0.0000000000,   0.0000000000,   3.4766371306)
 
  27 primitive cells build up your supercell.
 

 Routine SETGRP: Setting up the symmetry group for a 
 simple tetragonal supercell.


 Subroutine GETGRP returns: Found 16 space group operations
 (whereof 16 operations were pure point group operations)
 out of a pool of 16 trial point group operations.


The static configuration has the point symmetry D_4h.


Analysis of symmetry for dynamics (positions and initial velocities):
=====================================================================
 Subroutine PRICEL returns following result:
 
  LATTYP: Found a simple tetragonal cell.
 ALAT       =     2.7500493888
 C/A-ratio  =     1.2642089792
  
  Lattice vectors:
  
 A1 = (   2.7500493888,   0.0000000000,   0.0000000000)
 A2 = (   0.0000000000,   2.7500493888,   0.0000000000)
 A3 = (   0.0000000000,   0.0000000000,   3.4766371306)
 
  27 primitive cells build up your supercell.
 

 Routine SETGRP: Setting up the symmetry group for a 
 simple tetragonal supercell.


 Subroutine GETGRP returns: Found 16 space group operations
 (whereof 16 operations were pure point group operations)
 out of a pool of 16 trial point group operations.


The dynamic configuration has the point symmetry D_4h.


Analysis of structural, dynamic, and magnetic symmetry:
=====================================================================
 Subroutine PRICEL returns following result:
 
  LATTYP: Found a simple orthorhombic cell.
 ALAT       =     2.7500493888
 B/A-ratio  =     2.9999999999
 C/A-ratio  =     3.7926269376
  
  Lattice vectors:
  
 A1 = (   2.7500493888,   0.0000000000,   0.0000000000)
 A2 = (   0.0000000000,   8.2501481662,   0.0000000000)
 A3 = (   0.0000000000,   0.0000000000,  10.4299113916)
 
   3 primitive cells build up your supercell.
 

 Routine SETGRP: Setting up the symmetry group for a 
 simple tetragonal supercell.


 Subroutine GETGRP returns: Found  8 space group operations
 (whereof  2 operations were pure point group operations)
 out of a pool of 16 trial point group operations.


The magnetic configuration has the point symmetry C_1h.
 The point group associated with its full space group is D_2h.


 Subroutine INISYM returns: Found  8 space group operations
 (whereof  2 operations are pure point group operations),
 and found     3 'primitive' translations

 
 
 KPOINTS: automatic KPOINTS                       

Automatic generation of k-mesh.
 generate k-points for:    5    5    4
Space group operators:
 irot       det(A)        alpha          n_x          n_y          n_z        tau_x        tau_y        tau_z
    1     1.000000     0.000001     1.000000     0.000000     0.000000     0.000000     0.000000     0.000000
    2    -1.000000   180.000000     1.000000     0.000000     0.000000     0.000000     0.000000     0.000000
    3    -1.000000     0.000001     1.000000     0.000000     0.000000     0.000000     0.333333     0.333333
    4     1.000000   180.000000     0.000000     0.000000     1.000000     0.000000     0.333333     0.000000
    5    -1.000000   180.000000     0.000000     0.000000     1.000000     0.000000     0.000000     0.333333
    6     1.000000   180.000000     0.000000     1.000000     0.000000     0.000000     0.000000     0.333333
    7    -1.000000   180.000000     0.000000     1.000000     0.000000     0.000000     0.333333     0.000000
    8     1.000000   180.000000     1.000000     0.000000     0.000000     0.000000     0.333333     0.333333
 
 Subroutine IBZKPT returns following result:
 ===========================================
 
 Found     27 irreducible k-points:
 
 Following reciprocal coordinates:
            Coordinates               Weight
  0.000000  0.000000  0.000000      1.000000
  0.200000  0.000000  0.000000      2.000000
  0.400000  0.000000  0.000000      2.000000
  0.000000  0.200000  0.000000      2.000000
  0.200000  0.200000  0.000000      4.000000
  0.400000  0.200000  0.000000      4.000000
  0.000000  0.400000  0.000000      2.000000
  0.200000  0.400000  0.000000      4.000000
  0.400000  0.400000  0.000000      4.000000
  0.000000  0.000000  0.250000      2.000000
  0.200000  0.000000  0.250000      4.000000
  0.400000  0.000000  0.250000      4.000000
  0.000000  0.200000  0.250000      4.000000
  0.200000  0.200000  0.250000      8.000000
  0.400000  0.200000  0.250000      8.000000
  0.000000  0.400000  0.250000      4.000000
  0.200000  0.400000  0.250000      8.000000
  0.400000  0.400000  0.250000      8.000000
  0.000000  0.000000  0.500000      1.000000
  0.200000  0.000000  0.500000      2.000000
  0.400000  0.000000  0.500000      2.000000
  0.000000  0.200000  0.500000      2.000000
  0.200000  0.200000  0.500000      4.000000
  0.400000  0.200000  0.500000      4.000000
  0.000000  0.400000  0.500000      2.000000
  0.200000  0.400000  0.500000      4.000000
  0.400000  0.400000  0.500000      4.000000
 
 Following cartesian coordinates:
            Coordinates               Weight
  0.000000  0.000000  0.000000      1.000000
  0.024242  0.000000  0.000000      2.000000
  0.048484  0.000000  0.000000      2.000000
  0.000000  0.024242  0.000000      2.000000
  0.024242  0.024242  0.000000      4.000000
  0.048484  0.024242  0.000000      4.000000
  0.000000  0.048484  0.000000      2.000000
  0.024242  0.048484  0.000000      4.000000
  0.048484  0.048484  0.000000      4.000000
  0.000000  0.000000  0.023970      2.000000
  0.024242  0.000000  0.023970      4.000000
  0.048484  0.000000  0.023970      4.000000
  0.000000  0.024242  0.023970      4.000000
  0.024242  0.024242  0.023970      8.000000
  0.048484  0.024242  0.023970      8.000000
  0.000000  0.048484  0.023970      4.000000
  0.024242  0.048484  0.023970      8.000000
  0.048484  0.048484  0.023970      8.000000
  0.000000  0.000000  0.047939      1.000000
  0.024242  0.000000  0.047939      2.000000
  0.048484  0.000000  0.047939      2.000000
  0.000000  0.024242  0.047939      2.000000
  0.024242  0.024242  0.047939      4.000000
  0.048484  0.024242  0.047939      4.000000
  0.000000  0.048484  0.047939      2.000000
  0.024242  0.048484  0.047939      4.000000
  0.048484  0.048484  0.047939      4.000000
 


--------------------------------------------------------------------------------------------------------




 Dimension of arrays:
   k-points           NKPTS =     27   k-points in BZ     NKDIM =     27   number of bands    NBANDS=    186
   number of dos      NEDOS =    301   number of ions     NIONS =     54
   non local maximal  LDIM  =      6   non local SUM 2l+1 LMDIM =     18
   total plane-waves  NPLWV = 204120
   max r-space proj   IRMAX =      1   max aug-charges    IRDMAX=  89713
   dimension x,y,z NGX =    54 NGY =   54 NGZ =   70
   dimension x,y,z NGXF=   108 NGYF=  108 NGZF=  140
   support grid    NGXF=   216 NGYF=  216 NGZF=  280
   ions per type =              27  27
   NGX,Y,Z   is equivalent  to a cutoff of  10.88, 10.88, 11.16 a.u.
   NGXF,Y,Z  is equivalent  to a cutoff of  21.76, 21.76, 22.32 a.u.

 SYSTEM =  AlMn_pv                                 
 POSCAR =  NewRef: 27, @ ['Mn', array([1.37502469, 

 Startparameter for this run:
   NWRITE =      2    write-flag & timer
   PREC   = accura    normal or accurate (medium, high low for compatibility)
   ISTART =      0    job   : 0-new  1-cont  2-samecut
   ICHARG =      2    charge: 1-file 2-atom 10-const
   ISPIN  =      2    spin polarized calculation?
   LNONCOLLINEAR =      F non collinear calculations
   LSORBIT =      F    spin-orbit coupling
   INIWAV =      1    electr: 0-lowe 1-rand  2-diag
   LASPH  =      F    aspherical Exc in radial PAW
   METAGGA=      F    non-selfconsistent MetaGGA calc.

 Electronic Relaxation 1
   ENCUT  =  404.8 eV  29.75 Ry    5.45 a.u.  13.53 13.53 17.11*2*pi/ulx,y,z
   ENINI  =  404.8     initial cutoff
   ENAUG  =  500.7 eV  augmentation charge cutoff
   NELM   =    100;   NELMIN=  4; NELMDL= -8     # of ELM steps 
   EDIFF  = 0.1E-06   stopping-criterion for ELM
   LREAL  =      F    real-space projection
   NLSPLINE    = F    spline interpolate recip. space projectors
   LCOMPAT=      F    compatible to vasp.4.4
   GGA_COMPAT  = T    GGA compatible to vasp.4.4-vasp.4.6
   LMAXPAW     = -100 max onsite density
   LMAXMIX     =    2 max onsite mixed and CHGCAR
   VOSKOWN=      0    Vosko Wilk Nusair interpolation
   ROPT   =    0.00000   0.00000
 Ionic relaxation
   EDIFFG = 0.1E-05   stopping-criterion for IOM
   NSW    =      0    number of steps for IOM
   NBLOCK =      1;   KBLOCK =      1    inner block; outer block 
   IBRION =     -1    ionic relax: 0-MD 1-quasi-New 2-CG
   NFREE  =      0    steps in history (QN), initial steepest desc. (CG)
   ISIF   =      2    stress and relaxation
   IWAVPR =     10    prediction:  0-non 1-charg 2-wave 3-comb
   ISYM   =      2    0-nonsym 1-usesym 2-fastsym
   LCORR  =      T    Harris-Foulkes like correction to forces

   POTIM  = 0.2000    time-step for ionic-motion
   TEIN   =    0.0    initial temperature
   TEBEG  =    0.0;   TEEND  =   0.0 temperature during run
   SMASS  =  -3.00    Nose mass-parameter (am)
   estimated Nose-frequenzy (Omega)   =  0.10E-29 period in steps =****** mass=  -0.156E-26a.u.
   SCALEE = 1.0000    scale energy and forces
   NPACO  =    256;   APACO  = 16.0  distance and # of slots for P.C.
   PSTRESS=    0.0 pullay stress

  Mass of Ions in am
   POMASS =  26.98 54.94
  Ionic Valenz
   ZVAL   =   3.00  7.00
  Atomic Wigner-Seitz radii
   RWIGS  =  -1.00 -1.00
  virtual crystal weights 
   VCA    =   1.00  1.00
   NELECT =     270.0000    total number of electrons
   NUPDOWN=      -1.0000    fix difference up-down

 DOS related values:
   EMIN   =  10.00;   EMAX   =-10.00  energy-range for DOS
   EFERMI =   0.00
   ISMEAR =     1;   SIGMA  =   0.20  broadening in eV -4-tet -1-fermi 0-gaus

 Electronic relaxation 2 (details)
   IALGO  =     58    algorithm
   LDIAG  =      T    sub-space diagonalisation (order eigenvalues)
   LSUBROT=      F    optimize rotation matrix (better conditioning)
   TURBO    =      0    0=normal 1=particle mesh
   IRESTART =      0    0=no restart 2=restart with 2 vectors
   NREBOOT  =      0    no. of reboots
   NMIN     =      0    reboot dimension
   EREF     =   0.00    reference energy to select bands
   IMIX   =      4    mixing-type and parameters
     AMIX     =   0.40;   BMIX     =  1.00
     AMIX_MAG =   1.60;   BMIX_MAG =  1.00
     AMIN     =   0.10
     WC   =   100.;   INIMIX=   1;  MIXPRE=   1;  MAXMIX= -45

 Intra band minimization:
   WEIMIN = 0.0000     energy-eigenvalue tresh-hold
   EBREAK =  0.13E-09  absolut break condition
   DEPER  =   0.30     relativ break condition  

   TIME   =   0.40     timestep for ELM

  volume/ion in A,a.u.               =      13.15        88.72
  Fermi-wavevector in a.u.,A,eV,Ry     =   1.186118  2.241439 19.141722  1.406877
  Thomas-Fermi vector in A             =   2.322298
 
 Write flags
   LWAVE        =      F    write WAVECAR
   LDOWNSAMPLE  =      F    k-point downsampling of WAVECAR
   LCHARG       =      F    write CHGCAR
   LVTOT        =      F    write LOCPOT, total local potential
   LVHAR        =      F    write LOCPOT, Hartree potential only
   LELF         =      F    write electronic localiz. function (ELF)
   LORBIT       =     10    0 simple, 1 ext, 2 COOP (PROOUT), +10 PAW based schemes


 Dipole corrections
   LMONO  =      F    monopole corrections only (constant potential shift)
   LDIPOL =      F    correct potential (dipole corrections)
   IDIPOL =      0    1-x, 2-y, 3-z, 4-all directions 
   EPSILON=  1.0000000 bulk dielectric constant

 Exchange correlation treatment:
   GGA     =    --    GGA type
   LEXCH   =     8    internal setting for exchange type
   VOSKOWN=      0    Vosko Wilk Nusair interpolation
   LHFCALC =     F    Hartree Fock is set to
   LHFONE  =     F    Hartree Fock one center treatment
   AEXX    =    0.0000 exact exchange contribution

 Linear response parameters
   LEPSILON=     F    determine dielectric tensor
   LRPA    =     F    only Hartree local field effects (RPA)
   LNABLA  =     F    use nabla operator in PAW spheres
   LVEL    =     F    velocity operator in full k-point grid
   LINTERFAST=   F  fast interpolation
   KINTER  =     0    interpolate to denser k-point grid
   CSHIFT  =0.1000    complex shift for real part using Kramers Kronig
   OMEGAMAX=  -1.0    maximum frequency
   DEG_THRESHOLD= 0.2000000E-02 threshold for treating states as degnerate
   RTIME   =   -0.100 relaxation time in fs
  (WPLASMAI=    0.000 imaginary part of plasma frequency in eV, 0.658/RTIME)
   DFIELD  = 0.0000000 0.0000000 0.0000000 field for delta impulse in time
 
 Orbital magnetization related:
   ORBITALMAG=     F  switch on orbital magnetization
   LCHIMAG   =     F  perturbation theory with respect to B field
   DQ        =  0.001000  dq finite difference perturbation B field
   LLRAUG    =     F  two centre corrections for induced B field



--------------------------------------------------------------------------------------------------------


 Static calculation
 charge density and potential will be updated during run
 spin polarized calculation
 Conjugate gradient for all bands (Freysoldt, et al. PRB 79, 241103 (2009))
 preconditioned conjugated gradient                                        
 perform sub-space diagonalisation
    before iterative eigenvector-optimisation
 modified Broyden-mixing scheme, WC =      100.0
 initial mixing is a Kerker type mixing with AMIX =  0.4000 and BMIX =      1.0000
 Hartree-type preconditioning will be used
 using additional bands           51
 reciprocal scheme for non local part
 use partial core corrections
 no Harris-corrections to forces 
 use gradient corrections 
 use of overlap-Matrix (Vanderbilt PP)
 Methfessel and Paxton  Order N= 1 SIGMA  =   0.20


--------------------------------------------------------------------------------------------------------


  energy-cutoff  :      404.80
  volume of cell :      709.91
      direct lattice vectors                 reciprocal lattice vectors
     8.250148166  0.000000000  0.000000000     0.121209944  0.000000000  0.000000000
     0.000000000  8.250148166  0.000000000     0.000000000  0.121209944  0.000000000
     0.000000000  0.000000000 10.429911392     0.000000000  0.000000000  0.095878092

  length of vectors
     8.250148166  8.250148166 10.429911392     0.121209944  0.121209944  0.095878092


 
 k-points in units of 2pi/SCALE and weight: automatic KPOINTS                       
   0.00000000  0.00000000  0.00000000       0.010
   0.02424199  0.00000000  0.00000000       0.020
   0.04848398  0.00000000  0.00000000       0.020
   0.00000000  0.02424199  0.00000000       0.020
   0.02424199  0.02424199  0.00000000       0.040
   0.04848398  0.02424199  0.00000000       0.040
   0.00000000  0.04848398  0.00000000       0.020
   0.02424199  0.04848398  0.00000000       0.040
   0.04848398  0.04848398  0.00000000       0.040
   0.00000000  0.00000000  0.02396952       0.020
   0.02424199  0.00000000  0.02396952       0.040
   0.04848398  0.00000000  0.02396952       0.040
   0.00000000  0.02424199  0.02396952       0.040
   0.02424199  0.02424199  0.02396952       0.080
   0.04848398  0.02424199  0.02396952       0.080
   0.00000000  0.04848398  0.02396952       0.040
   0.02424199  0.04848398  0.02396952       0.080
   0.04848398  0.04848398  0.02396952       0.080
   0.00000000  0.00000000  0.04793905       0.010
   0.02424199  0.00000000  0.04793905       0.020
   0.04848398  0.00000000  0.04793905       0.020
   0.00000000  0.02424199  0.04793905       0.020
   0.02424199  0.02424199  0.04793905       0.040
   0.04848398  0.02424199  0.04793905       0.040
   0.00000000  0.04848398  0.04793905       0.020
   0.02424199  0.04848398  0.04793905       0.040
   0.04848398  0.04848398  0.04793905       0.040
 
 k-points in reciprocal lattice and weights: automatic KPOINTS                       
   0.00000000  0.00000000  0.00000000       0.010
   0.20000000  0.00000000  0.00000000       0.020
   0.40000000  0.00000000  0.00000000       0.020
   0.00000000  0.20000000  0.00000000       0.020
   0.20000000  0.20000000  0.00000000       0.040
   0.40000000  0.20000000  0.00000000       0.040
   0.00000000  0.40000000  0.00000000       0.020
   0.20000000  0.40000000  0.00000000       0.040
   0.40000000  0.40000000  0.00000000       0.040
   0.00000000  0.00000000  0.25000000       0.020
   0.20000000  0.00000000  0.25000000       0.040
   0.40000000  0.00000000  0.25000000       0.040
   0.00000000  0.20000000  0.25000000       0.040
   0.20000000  0.20000000  0.25000000       0.080
   0.40000000  0.20000000  0.25000000       0.080
   0.00000000  0.40000000  0.25000000       0.040
   0.20000000  0.40000000  0.25000000       0.080
   0.40000000  0.40000000  0.25000000       0.080
   0.00000000  0.00000000  0.50000000       0.010
   0.20000000  0.00000000  0.50000000       0.020
   0.40000000  0.00000000  0.50000000       0.020
   0.00000000  0.20000000  0.50000000       0.020
   0.20000000  0.20000000  0.50000000       0.040
   0.40000000  0.20000000  0.50000000       0.040
   0.00000000  0.40000000  0.50000000       0.020
   0.20000000  0.40000000  0.50000000       0.040
   0.40000000  0.40000000  0.50000000       0.040
 
 position of ions in fractional coordinates (direct lattice) 
   0.00000000  0.00000000  0.00000000
   0.00000000  0.00000000  0.33333333
   0.00000000  0.00000000  0.66666667
   0.00000000  0.33333333  0.00000000
   0.00000000  0.33333333  0.33333333
   0.00000000  0.33333333  0.66666667
   0.00000000  0.66666667  0.00000000
   0.00000000  0.66666667  0.33333333
   0.00000000  0.66666667  0.66666667
   0.33333333  0.00000000  0.00000000
   0.33333333  0.00000000  0.33333333
   0.33333333  0.00000000  0.66666667
   0.33333333  0.33333333  0.00000000
   0.33333333  0.33333333  0.33333333
   0.33333333  0.33333333  0.66666667
   0.33333333  0.66666667  0.00000000
   0.33333333  0.66666667  0.33333333
   0.33333333  0.66666667  0.66666667
   0.66666667  0.00000000  0.00000000
   0.66666667  0.00000000  0.33333333
   0.66666667  0.00000000  0.66666667
   0.66666667  0.33333333  0.00000000
   0.66666667  0.33333333  0.33333333
   0.66666667  0.33333333  0.66666667
   0.66666667  0.66666667  0.00000000
   0.66666667  0.66666667  0.33333333
   0.66666667  0.66666667  0.66666667
   0.16666667  0.16666667  0.16666667
   0.16666667  0.16666667  0.50000000
   0.16666667  0.16666667  0.83333333
   0.16666667  0.50000000  0.16666667
   0.16666667  0.50000000  0.50000000
   0.16666667  0.50000000  0.83333333
   0.16666667  0.83333333  0.16666667
   0.16666667  0.83333333  0.50000000
   0.16666667  0.83333333  0.83333333
   0.50000000  0.16666667  0.16666667
   0.50000000  0.16666667  0.50000000
   0.50000000  0.16666667  0.83333333
   0.50000000  0.50000000  0.16666667
   0.50000000  0.50000000  0.50000000
   0.50000000  0.50000000  0.83333333
   0.50000000  0.83333333  0.16666667
   0.50000000  0.83333333  0.50000000
   0.50000000  0.83333333  0.83333333
   0.83333333  0.16666667  0.16666667
   0.83333333  0.16666667  0.50000000
   0.83333333  0.16666667  0.83333333
   0.83333333  0.50000000  0.16666667
   0.83333333  0.50000000  0.50000000
   0.83333333  0.50000000  0.83333333
   0.83333333  0.83333333  0.16666667
   0.83333333  0.83333333  0.50000000
   0.83333333  0.83333333  0.83333333
 
 position of ions in cartesian coordinates  (Angst):
   0.00000000  0.00000000  0.00000000
   0.00000000  0.00000000  3.47663713
   0.00000000  0.00000000  6.95327426
   0.00000000  2.75004939  0.00000000
   0.00000000  2.75004939  3.47663713
   0.00000000  2.75004939  6.95327426
   0.00000000  5.50009878  0.00000000
   0.00000000  5.50009878  3.47663713
   0.00000000  5.50009878  6.95327426
   2.75004939  0.00000000  0.00000000
   2.75004939  0.00000000  3.47663713
   2.75004939  0.00000000  6.95327426
   2.75004939  2.75004939  0.00000000
   2.75004939  2.75004939  3.47663713
   2.75004939  2.75004939  6.95327426
   2.75004939  5.50009878  0.00000000
   2.75004939  5.50009878  3.47663713
   2.75004939  5.50009878  6.95327426
   5.50009878  0.00000000  0.00000000
   5.50009878  0.00000000  3.47663713
   5.50009878  0.00000000  6.95327426
   5.50009878  2.75004939  0.00000000
   5.50009878  2.75004939  3.47663713
   5.50009878  2.75004939  6.95327426
   5.50009878  5.50009878  0.00000000
   5.50009878  5.50009878  3.47663713
   5.50009878  5.50009878  6.95327426
   1.37502469  1.37502469  1.73831857
   1.37502469  1.37502469  5.21495570
   1.37502469  1.37502469  8.69159283
   1.37502469  4.12507408  1.73831857
   1.37502469  4.12507408  5.21495570
   1.37502469  4.12507408  8.69159283
   1.37502469  6.87512347  1.73831857
   1.37502469  6.87512347  5.21495570
   1.37502469  6.87512347  8.69159283
   4.12507408  1.37502469  1.73831857
   4.12507408  1.37502469  5.21495570
   4.12507408  1.37502469  8.69159283
   4.12507408  4.12507408  1.73831857
   4.12507408  4.12507408  5.21495570
   4.12507408  4.12507408  8.69159283
   4.12507408  6.87512347  1.73831857
   4.12507408  6.87512347  5.21495570
   4.12507408  6.87512347  8.69159283
   6.87512347  1.37502469  1.73831857
   6.87512347  1.37502469  5.21495570
   6.87512347  1.37502469  8.69159283
   6.87512347  4.12507408  1.73831857
   6.87512347  4.12507408  5.21495570
   6.87512347  4.12507408  8.69159283
   6.87512347  6.87512347  1.73831857
   6.87512347  6.87512347  5.21495570
   6.87512347  6.87512347  8.69159283
 


--------------------------------------------------------------------------------------------------------


 k-point  1 :   0.0000 0.0000 0.0000  plane waves:   13099
 k-point  2 :   0.2000 0.0000 0.0000  plane waves:   13101
 k-point  3 :   0.4000 0.0000 0.0000  plane waves:   13111
 k-point  4 :   0.0000 0.2000 0.0000  plane waves:   13101
 k-point  5 :   0.2000 0.2000 0.0000  plane waves:   13137
 k-point  6 :   0.4000 0.2000 0.0000  plane waves:   13119
 k-point  7 :   0.0000 0.4000 0.0000  plane waves:   13111
 k-point  8 :   0.2000 0.4000 0.0000  plane waves:   13119
 k-point  9 :   0.4000 0.4000 0.0000  plane waves:   13129
 k-point 10 :   0.0000 0.0000 0.2500  plane waves:   13134
 k-point 11 :   0.2000 0.0000 0.2500  plane waves:   13149
 k-point 12 :   0.4000 0.0000 0.2500  plane waves:   13119
 k-point 13 :   0.0000 0.2000 0.2500  plane waves:   13149
 k-point 14 :   0.2000 0.2000 0.2500  plane waves:   13145
 k-point 15 :   0.4000 0.2000 0.2500  plane waves:   13134
 k-point 16 :   0.0000 0.4000 0.2500  plane waves:   13119
 k-point 17 :   0.2000 0.4000 0.2500  plane waves:   13134
 k-point 18 :   0.4000 0.4000 0.2500  plane waves:   13108
 k-point 19 :   0.0000 0.0000 0.5000  plane waves:   13186
 k-point 20 :   0.2000 0.0000 0.5000  plane waves:   13124
 k-point 21 :   0.4000 0.0000 0.5000  plane waves:   13152
 k-point 22 :   0.0000 0.2000 0.5000  plane waves:   13124
 k-point 23 :   0.2000 0.2000 0.5000  plane waves:   13136
 k-point 24 :   0.4000 0.2000 0.5000  plane waves:   13128
 k-point 25 :   0.0000 0.4000 0.5000  plane waves:   13152
 k-point 26 :   0.2000 0.4000 0.5000  plane waves:   13128
 k-point 27 :   0.4000 0.4000 0.5000  plane waves:   13112

 maximum and minimum number of plane-waves per node :      3304     3246

 maximum number of plane-waves:     13186
 maximum index in each direction: 
   IXMAX=   13   IYMAX=   13   IZMAX=   17
   IXMIN=  -13   IYMIN=  -13   IZMIN=  -17


 parallel 3D FFT for wavefunctions:
    minimum data exchange during FFTs selected (reduces bandwidth)
 parallel 3D FFT for charge:
    minimum data exchange during FFTs selected (reduces bandwidth)


 total amount of memory used by VASP MPI-rank0   950766. kBytes
=======================================================================

   base      :      30000. kBytes
   nonl-proj :      28494. kBytes
   fftplans  :      31580. kBytes
   grid      :      21385. kBytes
   one-center:        435. kBytes
   wavefun   :     838872. kBytes
 
     INWAV:  cpu time    0.0000: real time    0.0000
 Broyden mixing: mesh for mixing (old mesh)
   NGX = 27   NGY = 27   NGZ = 35
  (NGX  =108   NGY  =108   NGZ  =140)
  gives a total of  25515 points

 initial charge density was supplied:
 charge density of overlapping atoms calculated
 number of electron     270.0000000 magnetization      45.0000000
 keeping initial charge density in first step


--------------------------------------------------------------------------------------------------------


 Maximum index for augmentation-charges        10967 (set IRDMAX)


--------------------------------------------------------------------------------------------------------


 First call to EWALD:  gamma=   0.199
 Maximum number of real-space cells 3x 3x 2
 Maximum number of reciprocal cells 3x 3x 3

    FEWALD:  cpu time    0.0195: real time    0.0196


--------------------------------------- Iteration      1(   1)  ---------------------------------------


    POTLOK:  cpu time    0.3949: real time    0.3949
    SETDIJ:  cpu time    0.4686: real time    0.4686
    TRIAL :  cpu time   33.1019: real time   33.4081
    CORREC:  cpu time    0.0059: real time    0.0060
    --------------------------------------------
      LOOP:  cpu time   34.2262: real time   34.5762

 eigenvalue-minimisations  : 20088
 total energy-change (2. order) : 0.2017136E+04  (-0.9014436E+04)
 number of electron     270.0000000 magnetization      45.0000000
 augmentation part      270.0000000 magnetization      45.0000000

 Free energy of the ion-electron system (eV)
  ---------------------------------------------------
  alpha Z        PSCENC =       798.38614055
  Ewald energy   TEWEN  =    -12901.57693327
  -Hartree energ DENC   =     -2855.60785864
  -exchange      EXHF   =         0.00000000
  -V(xc)+E(xc)   XCENC  =      -995.97760790
  PAW double counting   =     12741.82587617   -11476.22345381
  entropy T*S    EENTRO =         0.00362656
  eigenvalues    EBANDS =      4008.63263905
  atomic energy  EATOM  =     12697.67401269
  ---------------------------------------------------
  free energy    TOTEN  =      2017.13644140 eV

  energy without entropy =     2017.13281483  energy(sigma->0) =     2017.13523254


--------------------------------------------------------------------------------------------------------




--------------------------------------- Iteration      1(   2)  ---------------------------------------


    TRIAL :  cpu time   34.0283: real time   34.3020
    CORREC:  cpu time    0.0070: real time    0.0072
    --------------------------------------------
      LOOP:  cpu time   34.0363: real time   34.3125

 eigenvalue-minimisations  : 20088
 total energy-change (2. order) :-0.2139653E+04  (-0.2061649E+04)
 number of electron     270.0000000 magnetization      45.0000000
 augmentation part      270.0000000 magnetization      45.0000000

 Free energy of the ion-electron system (eV)
  ---------------------------------------------------
  alpha Z        PSCENC =       798.38614055
  Ewald energy   TEWEN  =    -12901.57693327
  -Hartree energ DENC   =     -2855.60785864
  -exchange      EXHF   =         0.00000000
  -V(xc)+E(xc)   XCENC  =      -995.97760790
  PAW double counting   =     12741.82587617   -11476.22345381
  entropy T*S    EENTRO =         0.00308774
  eigenvalues    EBANDS =      1868.98043117
  atomic energy  EATOM  =     12697.67401269
  ---------------------------------------------------
  free energy    TOTEN  =      -122.51630531 eV

  energy without entropy =     -122.51939305  energy(sigma->0) =     -122.51733456


--------------------------------------------------------------------------------------------------------




--------------------------------------- Iteration      1(   3)  ---------------------------------------


    TRIAL :  cpu time   45.7577: real time   46.3328
    CORREC:  cpu time    0.0083: real time    0.0092
    --------------------------------------------
      LOOP:  cpu time   45.7668: real time   46.3459

 eigenvalue-minimisations  : 29926
 total energy-change (2. order) :-0.2427095E+03  (-0.2076462E+03)
 number of electron     270.0000000 magnetization      45.0000000
 augmentation part      270.0000000 magnetization      45.0000000

 Free energy of the ion-electron system (eV)
  ---------------------------------------------------
  alpha Z        PSCENC =       798.38614055
  Ewald energy   TEWEN  =    -12901.57693327
  -Hartree energ DENC   =     -2855.60785864
  -exchange      EXHF   =         0.00000000
  -V(xc)+E(xc)   XCENC  =      -995.97760790
  PAW double counting   =     12741.82587617   -11476.22345381
  entropy T*S    EENTRO =         0.00128896
  eigenvalues    EBANDS =      1626.27277000
  atomic energy  EATOM  =     12697.67401269
  ---------------------------------------------------
  free energy    TOTEN  =      -365.22576525 eV

  energy without entropy =     -365.22705421  energy(sigma->0) =     -365.22619491


--------------------------------------------------------------------------------------------------------




--------------------------------------- Iteration      1(   4)  ---------------------------------------


    TRIAL :  cpu time   49.3534: real time   49.8414
    CORREC:  cpu time    0.0086: real time    0.0095
    --------------------------------------------
      LOOP:  cpu time   49.3628: real time   49.8543

 eigenvalue-minimisations  : 32520
 total energy-change (2. order) :-0.3535795E+02  (-0.3068144E+02)
 number of electron     270.0000000 magnetization      45.0000000
 augmentation part      270.0000000 magnetization      45.0000000

 Free energy of the ion-electron system (eV)
  ---------------------------------------------------
  alpha Z        PSCENC =       798.38614055
  Ewald energy   TEWEN  =    -12901.57693327
  -Hartree energ DENC   =     -2855.60785864
  -exchange      EXHF   =         0.00000000
  -V(xc)+E(xc)   XCENC  =      -995.97760790
  PAW double counting   =     12741.82587617   -11476.22345381
  entropy T*S    EENTRO =         0.02317251
  eigenvalues    EBANDS =      1590.89293529
  atomic energy  EATOM  =     12697.67401269
  ---------------------------------------------------
  free energy    TOTEN  =      -400.58371642 eV

  energy without entropy =     -400.60688893  energy(sigma->0) =     -400.59144059


--------------------------------------------------------------------------------------------------------




--------------------------------------- Iteration      1(   5)  ---------------------------------------


    TRIAL :  cpu time   48.6131: real time   49.1266
    CORREC:  cpu time    0.0087: real time    0.0097
    --------------------------------------------
      LOOP:  cpu time   48.6227: real time   49.1400

 eigenvalue-minimisations  : 32408
 total energy-change (2. order) :-0.2792721E+01  (-0.2676829E+01)
 number of electron     270.0000000 magnetization      45.0000000
 augmentation part      270.0000000 magnetization      45.0000000

 Free energy of the ion-electron system (eV)
  ---------------------------------------------------
  alpha Z        PSCENC =       798.38614055
  Ewald energy   TEWEN  =    -12901.57693327
  -Hartree energ DENC   =     -2855.60785864
  -exchange      EXHF   =         0.00000000
  -V(xc)+E(xc)   XCENC  =      -995.97760790
  PAW double counting   =     12741.82587617   -11476.22345381
  entropy T*S    EENTRO =         0.02404227
  eigenvalues    EBANDS =      1588.09934426
  atomic energy  EATOM  =     12697.67401269
  ---------------------------------------------------
  free energy    TOTEN  =      -403.37643769 eV

  energy without entropy =     -403.40047996  energy(sigma->0) =     -403.38445178


--------------------------------------------------------------------------------------------------------




--------------------------------------- Iteration      1(   6)  ---------------------------------------


    TRIAL :  cpu time   49.1219: real time   49.5033
    CORREC:  cpu time    0.0087: real time    0.0094
    --------------------------------------------
      LOOP:  cpu time   49.1322: real time   49.5164

 eigenvalue-minimisations  : 32392
 total energy-change (2. order) :-0.2101024E+00  (-0.2069762E+00)
 number of electron     270.0000000 magnetization      45.0000000
 augmentation part      270.0000000 magnetization      45.0000000

 Free energy of the ion-electron system (eV)
  ---------------------------------------------------
  alpha Z        PSCENC =       798.38614055
  Ewald energy   TEWEN  =    -12901.57693327
  -Hartree energ DENC   =     -2855.60785864
  -exchange      EXHF   =         0.00000000
  -V(xc)+E(xc)   XCENC  =      -995.97760790
  PAW double counting   =     12741.82587617   -11476.22345381
  entropy T*S    EENTRO =         0.02473241
  eigenvalues    EBANDS =      1587.88855169
  atomic energy  EATOM  =     12697.67401269
  ---------------------------------------------------
  free energy    TOTEN  =      -403.58654012 eV

  energy without entropy =     -403.61127253  energy(sigma->0) =     -403.59478426


--------------------------------------------------------------------------------------------------------




--------------------------------------- Iteration      1(   7)  ---------------------------------------


    TRIAL :  cpu time   49.6922: real time   50.1943
    CORREC:  cpu time    0.0086: real time    0.0095
    --------------------------------------------
      LOOP:  cpu time   49.7042: real time   50.2080

 eigenvalue-minimisations  : 32936
 total energy-change (2. order) :-0.2173986E-01  (-0.2158464E-01)
 number of electron     270.0000000 magnetization      45.0000000
 augmentation part      270.0000000 magnetization      45.0000000

 Free energy of the ion-electron system (eV)
  ---------------------------------------------------
  alpha Z        PSCENC =       798.38614055
  Ewald energy   TEWEN  =    -12901.57693327
  -Hartree energ DENC   =     -2855.60785864
  -exchange      EXHF   =         0.00000000
  -V(xc)+E(xc)   XCENC  =      -995.97760790
  PAW double counting   =     12741.82587617   -11476.22345381
  entropy T*S    EENTRO =         0.02494983
  eigenvalues    EBANDS =      1587.86659442
  atomic energy  EATOM  =     12697.67401269
  ---------------------------------------------------
  free energy    TOTEN  =      -403.60827998 eV

  energy without entropy =     -403.63322980  energy(sigma->0) =     -403.61659658


--------------------------------------------------------------------------------------------------------




--------------------------------------- Iteration      1(   8)  ---------------------------------------


    TRIAL :  cpu time   48.2013: real time   48.7213
    CORREC:  cpu time    0.0089: real time    0.0096
    CHARGE:  cpu time    1.6397: real time    1.6398
    --------------------------------------------
      LOOP:  cpu time   49.8513: real time   50.3749

 eigenvalue-minimisations  : 31888
 total energy-change (2. order) :-0.1953304E-02  (-0.1945849E-02)
 number of electron     269.9999995 magnetization      32.9153615
 augmentation part       64.3325097 magnetization      18.8952441

 Free energy of the ion-electron system (eV)
  ---------------------------------------------------
  alpha Z        PSCENC =       798.38614055
  Ewald energy   TEWEN  =    -12901.57693327
  -Hartree energ DENC   =     -2855.60785864
  -exchange      EXHF   =         0.00000000
  -V(xc)+E(xc)   XCENC  =      -995.97760790
  PAW double counting   =     12741.82587617   -11476.22345381
  entropy T*S    EENTRO =         0.02495673
  eigenvalues    EBANDS =      1587.86463421
  atomic energy  EATOM  =     12697.67401269
  ---------------------------------------------------
  free energy    TOTEN  =      -403.61023328 eV

  energy without entropy =     -403.63519001  energy(sigma->0) =     -403.61855219


--------------------------------------------------------------------------------------------------------




--------------------------------------- Iteration      1(   9)  ---------------------------------------


    POTLOK:  cpu time    0.3968: real time    0.3968
    SETDIJ:  cpu time    0.4594: real time    0.4593
    TRIAL :  cpu time   17.0293: real time   17.1783
    CORREC:  cpu time    5.4292: real time    5.4636
    CHARGE:  cpu time    1.6331: real time    1.7116
    --------------------------------------------
      LOOP:  cpu time   24.9622: real time   25.2256

 eigenvalue-minimisations  :     0
 total energy-change (2. order) : 0.2955355E+03  (-0.2179917E+03)
 number of electron     269.9999993 magnetization      34.6030603
 augmentation part       83.3785657 magnetization      22.8594671

 Free energy of the ion-electron system (eV)
  ---------------------------------------------------
  alpha Z        PSCENC =       798.38614055
  Ewald energy   TEWEN  =    -12901.57693327
  -Hartree energ DENC   =     -1276.88576948
  -exchange      EXHF   =         0.00000000
  -V(xc)+E(xc)   XCENC  =     -1041.68821108
  PAW double counting   =     19184.54848499   -17765.55155966
  entropy T*S    EENTRO =         0.01872811
  eigenvalues    EBANDS =       196.99419191
  atomic energy  EATOM  =     12697.67401269
  ---------------------------------------------------
  free energy    TOTEN  =      -108.07468663 eV

  energy without entropy =     -108.09341474  energy(sigma->0) =     -108.08092934


--------------------------------------------------------------------------------------------------------




--------------------------------------- Iteration      1(  10)  ---------------------------------------


    POTLOK:  cpu time    0.3935: real time    0.3935
    SETDIJ:  cpu time    0.4527: real time    0.4773
    TRIAL :  cpu time   17.8505: real time   18.0262
    CORREC:  cpu time    5.4170: real time    5.4931
    CHARGE:  cpu time    1.6618: real time    1.6619
    --------------------------------------------
      LOOP:  cpu time   25.7785: real time   26.0557

 eigenvalue-minimisations  :     0
 total energy-change (2. order) :-0.2131643E+03  (-0.1314997E+02)
 number of electron     269.9999993 magnetization      35.0746828
 augmentation part       87.7541020 magnetization      23.8755108

 Free energy of the ion-electron system (eV)
  ---------------------------------------------------
  alpha Z        PSCENC =       798.38614055
  Ewald energy   TEWEN  =    -12901.57693327
  -Hartree energ DENC   =     -2153.33242307
  -exchange      EXHF   =         0.00000000
  -V(xc)+E(xc)   XCENC  =     -1010.65187368
  PAW double counting   =     20919.89818034   -19692.03547428
  entropy T*S    EENTRO =         0.01531713
  eigenvalues    EBANDS =      1020.38067760
  atomic energy  EATOM  =     12697.67401269
  ---------------------------------------------------
  free energy    TOTEN  =      -321.23896501 eV

  energy without entropy =     -321.25428214  energy(sigma->0) =     -321.24407072


--------------------------------------------------------------------------------------------------------




--------------------------------------- Iteration      1(  11)  ---------------------------------------


    POTLOK:  cpu time    0.3934: real time    0.3934
    SETDIJ:  cpu time    0.4608: real time    0.4608
    TRIAL :  cpu time   16.9918: real time   17.1015
    CORREC:  cpu time    5.3914: real time    5.4330
    CHARGE:  cpu time    1.6488: real time    1.6489
    --------------------------------------------
      LOOP:  cpu time   24.8874: real time   25.0401

 eigenvalue-minimisations  :     0
 total energy-change (2. order) :-0.1323618E+02  (-0.1308304E+02)
 number of electron     269.9999992 magnetization      35.5347292
 augmentation part       88.7809129 magnetization      24.6223273

 Free energy of the ion-electron system (eV)
  ---------------------------------------------------
  alpha Z        PSCENC =       798.38614055
  Ewald energy   TEWEN  =    -12901.57693327
  -Hartree energ DENC   =     -2436.38676298
  -exchange      EXHF   =         0.00000000
  -V(xc)+E(xc)   XCENC  =     -1000.71748387
  PAW double counting   =     21825.30817235   -20636.26024061
  entropy T*S    EENTRO =         0.00037879
  eigenvalues    EBANDS =      1319.08262931
  atomic energy  EATOM  =     12697.67401269
  ---------------------------------------------------
  free energy    TOTEN  =      -334.47514870 eV

  energy without entropy =     -334.47552748  energy(sigma->0) =     -334.47527496


--------------------------------------------------------------------------------------------------------




--------------------------------------- Iteration      1(  12)  ---------------------------------------


    POTLOK:  cpu time    0.3940: real time    0.3940
    SETDIJ:  cpu time    0.4828: real time    0.4828
    TRIAL :  cpu time   17.8139: real time   18.0599
    CORREC:  cpu time    6.0899: real time    6.1580
    CHARGE:  cpu time    1.6338: real time    1.6553
    --------------------------------------------
      LOOP:  cpu time   26.4722: real time   26.8089

 eigenvalue-minimisations  :     0
 total energy-change (2. order) :-0.1259540E+02  (-0.6045734E+01)
 number of electron     269.9999992 magnetization      35.6550006
 augmentation part       87.0809759 magnetization      24.5134385

 Free energy of the ion-electron system (eV)
  ---------------------------------------------------
  alpha Z        PSCENC =       798.38614055
  Ewald energy   TEWEN  =    -12901.57693327
  -Hartree energ DENC   =     -2589.62341178
  -exchange      EXHF   =         0.00000000
  -V(xc)+E(xc)   XCENC  =      -996.08003982
  PAW double counting   =     21574.29904185   -20371.81306423
  entropy T*S    EENTRO =         0.00362204
  eigenvalues    EBANDS =      1441.66333139
  atomic energy  EATOM  =     12697.67401269
  ---------------------------------------------------
  free energy    TOTEN  =      -347.07054384 eV

  energy without entropy =     -347.07416588  energy(sigma->0) =     -347.07175118


--------------------------------------------------------------------------------------------------------




--------------------------------------- Iteration      1(  13)  ---------------------------------------


    POTLOK:  cpu time    0.3926: real time    0.3925
    SETDIJ:  cpu time    0.4608: real time    0.4609
    TRIAL :  cpu time   16.9721: real time   17.0944
    CORREC:  cpu time    5.4277: real time    5.4430
    CHARGE:  cpu time    1.6357: real time    1.6786
    --------------------------------------------
      LOOP:  cpu time   24.8991: real time   25.0819

 eigenvalue-minimisations  :     0
 total energy-change (2. order) :-0.5861017E+01  (-0.1027826E+01)
 number of electron     269.9999993 magnetization      35.4636919
 augmentation part       86.2377472 magnetization      24.3259398

 Free energy of the ion-electron system (eV)
  ---------------------------------------------------
  alpha Z        PSCENC =       798.38614055
  Ewald energy   TEWEN  =    -12901.57693327
  -Hartree energ DENC   =     -2544.95562459
  -exchange      EXHF   =         0.00000000
  -V(xc)+E(xc)   XCENC  =      -998.27964910
  PAW double counting   =     21148.01837285   -19910.89760648
  entropy T*S    EENTRO =        -0.00435620
  eigenvalues    EBANDS =      1358.69610410
  atomic energy  EATOM  =     12697.67401269
  ---------------------------------------------------
  free energy    TOTEN  =      -352.93156121 eV

  energy without entropy =     -352.92720501  energy(sigma->0) =     -352.93010914


--------------------------------------------------------------------------------------------------------




--------------------------------------- Iteration      1(  14)  ---------------------------------------


    POTLOK:  cpu time    0.3928: real time    0.3928
    SETDIJ:  cpu time    0.4572: real time    0.4572
    TRIAL :  cpu time   16.9404: real time   17.2051
    CORREC:  cpu time    6.1710: real time    6.3108
    CHARGE:  cpu time    1.6914: real time    1.7104
    --------------------------------------------
      LOOP:  cpu time   25.6548: real time   26.0790

 eigenvalue-minimisations  :     0
 total energy-change (2. order) :-0.1017345E+01  (-0.1251448E+01)
 number of electron     269.9999992 magnetization      35.5138888
 augmentation part       85.9477015 magnetization      24.1072573

 Free energy of the ion-electron system (eV)
  ---------------------------------------------------
  alpha Z        PSCENC =       798.38614055
  Ewald energy   TEWEN  =    -12901.57693327
  -Hartree energ DENC   =     -2499.94776348
  -exchange      EXHF   =         0.00000000
  -V(xc)+E(xc)   XCENC  =      -999.95919923
  PAW double counting   =     20807.93992373   -19557.96438636
  entropy T*S    EENTRO =         0.00110790
  eigenvalues    EBANDS =      1301.50365563
  atomic energy  EATOM  =     12697.67401269
  ---------------------------------------------------
  free energy    TOTEN  =      -353.94890594 eV

  energy without entropy =     -353.95001385  energy(sigma->0) =     -353.94927524


--------------------------------------------------------------------------------------------------------




--------------------------------------- Iteration      1(  15)  ---------------------------------------


    POTLOK:  cpu time    0.3855: real time    0.4000
    SETDIJ:  cpu time    0.4559: real time    0.4558
    TRIAL :  cpu time   17.5501: real time   17.7258
    CORREC:  cpu time    5.4961: real time    5.5406
    CHARGE:  cpu time    1.6350: real time    1.6351
    --------------------------------------------
      LOOP:  cpu time   25.5299: real time   25.7649

 eigenvalue-minimisations  :     0
 total energy-change (2. order) :-0.1251084E+01  (-0.6310758E+00)
 number of electron     269.9999992 magnetization      35.4091672
 augmentation part       86.7737226 magnetization      24.1341889

 Free energy of the ion-electron system (eV)
  ---------------------------------------------------
  alpha Z        PSCENC =       798.38614055
  Ewald energy   TEWEN  =    -12901.57693327
  -Hartree energ DENC   =     -2464.09976079
  -exchange      EXHF   =         0.00000000
  -V(xc)+E(xc)   XCENC  =     -1001.02892657
  PAW double counting   =     19991.72106425   -18733.63675529
  entropy T*S    EENTRO =        -0.00235231
  eigenvalues    EBANDS =      1257.36006047
  atomic energy  EATOM  =     12697.67401269
  ---------------------------------------------------
  free energy    TOTEN  =      -355.19999005 eV

  energy without entropy =     -355.19763774  energy(sigma->0) =     -355.19920595


--------------------------------------------------------------------------------------------------------




--------------------------------------- Iteration      1(  16)  ---------------------------------------


    POTLOK:  cpu time    0.3930: real time    0.3930
    SETDIJ:  cpu time    0.4838: real time    0.4838
    TRIAL :  cpu time   17.0493: real time   17.1701
    CORREC:  cpu time    5.4148: real time    5.4697
    CHARGE:  cpu time    1.6405: real time    1.7245
    --------------------------------------------
      LOOP:  cpu time   24.9965: real time   25.2571

 eigenvalue-minimisations  :     0
 total energy-change (2. order) :-0.6309974E+00  (-0.1740356E+00)
 number of electron     269.9999992 magnetization      35.4036881
 augmentation part       87.1533773 magnetization      24.2084777

 Free energy of the ion-electron system (eV)
  ---------------------------------------------------
  alpha Z        PSCENC =       798.38614055
  Ewald energy   TEWEN  =    -12901.57693327
  -Hartree energ DENC   =     -2493.48433190
  -exchange      EXHF   =         0.00000000
  -V(xc)+E(xc)   XCENC  =      -999.72738110
  PAW double counting   =     19651.72866763   -18400.86911177
  entropy T*S    EENTRO =        -0.00034133
  eigenvalues    EBANDS =      1292.04030200
  atomic energy  EATOM  =     12697.67401269
  ---------------------------------------------------
  free energy    TOTEN  =      -355.83098748 eV

  energy without entropy =     -355.83064616  energy(sigma->0) =     -355.83087371


--------------------------------------------------------------------------------------------------------




--------------------------------------- Iteration      1(  17)  ---------------------------------------


    POTLOK:  cpu time    0.3926: real time    0.3926
    SETDIJ:  cpu time    0.4399: real time    0.4656
    TRIAL :  cpu time   17.8323: real time   18.0477
    CORREC:  cpu time    5.4777: real time    5.5567
    CHARGE:  cpu time    1.6390: real time    1.6391
    --------------------------------------------
      LOOP:  cpu time   25.7830: real time   26.1039

 eigenvalue-minimisations  :     0
 total energy-change (2. order) :-0.1732584E+00  (-0.2529240E+00)
 number of electron     269.9999992 magnetization      35.2950173
 augmentation part       87.3727608 magnetization      24.3970183

 Free energy of the ion-electron system (eV)
  ---------------------------------------------------
  alpha Z        PSCENC =       798.38614055
  Ewald energy   TEWEN  =    -12901.57693327
  -Hartree energ DENC   =     -2509.88400924
  -exchange      EXHF   =         0.00000000
  -V(xc)+E(xc)   XCENC  =      -998.97929478
  PAW double counting   =     19589.26137458   -18342.32118601
  entropy T*S    EENTRO =        -0.00205187
  eigenvalues    EBANDS =      1311.43599088
  atomic energy  EATOM  =     12697.67401269
  ---------------------------------------------------
  free energy    TOTEN  =      -356.00424592 eV

  energy without entropy =     -356.00219406  energy(sigma->0) =     -356.00356197


--------------------------------------------------------------------------------------------------------




--------------------------------------- Iteration      1(  18)  ---------------------------------------


    POTLOK:  cpu time    0.3936: real time    0.3936
    SETDIJ:  cpu time    0.4659: real time    0.4658
    TRIAL :  cpu time   16.9965: real time   17.1124
    CORREC:  cpu time    5.3715: real time    5.4500
    CHARGE:  cpu time    1.6617: real time    1.6621
    --------------------------------------------
      LOOP:  cpu time   24.9115: real time   25.1077

 eigenvalue-minimisations  :     0
 total energy-change (2. order) :-0.2529459E+00  (-0.9957818E-01)
 number of electron     269.9999992 magnetization      35.3026549
 augmentation part       87.0978180 magnetization      24.4628445

 Free energy of the ion-electron system (eV)
  ---------------------------------------------------
  alpha Z        PSCENC =       798.38614055
  Ewald energy   TEWEN  =    -12901.57693327
  -Hartree energ DENC   =     -2518.27677933
  -exchange      EXHF   =         0.00000000
  -V(xc)+E(xc)   XCENC  =      -998.26024318
  PAW double counting   =     19536.48259820   -18292.17701519
  entropy T*S    EENTRO =        -0.00015251
  eigenvalues    EBANDS =      1321.49307959
  atomic energy  EATOM  =     12697.67401269
  ---------------------------------------------------
  free energy    TOTEN  =      -356.25719180 eV

  energy without entropy =     -356.25703929  energy(sigma->0) =     -356.25714097


--------------------------------------------------------------------------------------------------------




--------------------------------------- Iteration      1(  19)  ---------------------------------------


    POTLOK:  cpu time    0.3920: real time    0.3920
    SETDIJ:  cpu time    0.4773: real time    0.4773
    TRIAL :  cpu time   17.7210: real time   18.0151
    CORREC:  cpu time    6.4984: real time    6.5374
    CHARGE:  cpu time    1.6409: real time    1.6585
    --------------------------------------------
      LOOP:  cpu time   26.7623: real time   27.1130

 eigenvalue-minimisations  :     0
 total energy-change (2. order) :-0.9917501E-01  (-0.3756956E-01)
 number of electron     269.9999992 magnetization      35.2593913
 augmentation part       86.9192727 magnetization      24.4757471

 Free energy of the ion-electron system (eV)
  ---------------------------------------------------
  alpha Z        PSCENC =       798.38614055
  Ewald energy   TEWEN  =    -12901.57693327
  -Hartree energ DENC   =     -2503.82962111
  -exchange      EXHF   =         0.00000000
  -V(xc)+E(xc)   XCENC  =      -998.57798150
  PAW double counting   =     19508.99324731   -18261.81612729
  entropy T*S    EENTRO =        -0.00114218
  eigenvalues    EBANDS =      1304.39104832
  atomic energy  EATOM  =     12697.67401269
  ---------------------------------------------------
  free energy    TOTEN  =      -356.35636681 eV

  energy without entropy =     -356.35522463  energy(sigma->0) =     -356.35598608


--------------------------------------------------------------------------------------------------------




--------------------------------------- Iteration      1(  20)  ---------------------------------------


    POTLOK:  cpu time    0.3922: real time    0.3922
    SETDIJ:  cpu time    0.4641: real time    0.4709
    TRIAL :  cpu time   16.9552: real time   17.0800
    CORREC:  cpu time    5.4041: real time    5.4186
    CHARGE:  cpu time    1.6654: real time    1.7104
    --------------------------------------------
      LOOP:  cpu time   24.8850: real time   25.0774

 eigenvalue-minimisations  :     0
 total energy-change (2. order) :-0.3742868E-01  (-0.5988192E-01)
 number of electron     269.9999992 magnetization      35.2477925
 augmentation part       86.8102742 magnetization      24.5349576

 Free energy of the ion-electron system (eV)
  ---------------------------------------------------
  alpha Z        PSCENC =       798.38614055
  Ewald energy   TEWEN  =    -12901.57693327
  -Hartree energ DENC   =     -2495.26484620
  -exchange      EXHF   =         0.00000000
  -V(xc)+E(xc)   XCENC  =      -998.79940662
  PAW double counting   =     19498.96421459   -18250.01412687
  entropy T*S    EENTRO =        -0.00053980
  eigenvalues    EBANDS =      1294.23829182
  atomic energy  EATOM  =     12697.67401269
  ---------------------------------------------------
  free energy    TOTEN  =      -356.39379550 eV

  energy without entropy =     -356.39325570  energy(sigma->0) =     -356.39361556


--------------------------------------------------------------------------------------------------------




--------------------------------------- Iteration      1(  21)  ---------------------------------------


    POTLOK:  cpu time    0.3919: real time    0.3919
    SETDIJ:  cpu time    0.4621: real time    0.4621
    TRIAL :  cpu time   16.9253: real time   17.1761
    CORREC:  cpu time    6.2657: real time    6.3747
    CHARGE:  cpu time    1.6723: real time    1.6931
    --------------------------------------------
      LOOP:  cpu time   25.7227: real time   26.1055

 eigenvalue-minimisations  :     0
 total energy-change (2. order) :-0.5990730E-01  (-0.2638310E-01)
 number of electron     269.9999992 magnetization      35.2377359
 augmentation part       86.8943785 magnetization      24.5745564

 Free energy of the ion-electron system (eV)
  ---------------------------------------------------
  alpha Z        PSCENC =       798.38614055
  Ewald energy   TEWEN  =    -12901.57693327
  -Hartree energ DENC   =     -2492.82767341
  -exchange      EXHF   =         0.00000000
  -V(xc)+E(xc)   XCENC  =      -998.70951784
  PAW double counting   =     19510.10810089   -18260.56274139
  entropy T*S    EENTRO =        -0.00067811
  eigenvalues    EBANDS =      1291.05544878
  atomic energy  EATOM  =     12697.67401269
  ---------------------------------------------------
  free energy    TOTEN  =      -356.45370280 eV

  energy without entropy =     -356.45302469  energy(sigma->0) =     -356.45347676


--------------------------------------------------------------------------------------------------------




--------------------------------------- Iteration      1(  22)  ---------------------------------------


    POTLOK:  cpu time    0.3932: real time    0.3932
    SETDIJ:  cpu time    0.4621: real time    0.4631
    TRIAL :  cpu time   17.5681: real time   17.7213
    CORREC:  cpu time    5.4447: real time    5.4967
    CHARGE:  cpu time    1.6564: real time    1.6567
    --------------------------------------------
      LOOP:  cpu time   25.5417: real time   25.7495

 eigenvalue-minimisations  :     0
 total energy-change (2. order) :-0.2632783E-01  (-0.9652879E-02)
 number of electron     269.9999992 magnetization      35.2368777
 augmentation part       86.9869671 magnetization      24.5911473

 Free energy of the ion-electron system (eV)
  ---------------------------------------------------
  alpha Z        PSCENC =       798.38614055
  Ewald energy   TEWEN  =    -12901.57693327
  -Hartree energ DENC   =     -2498.84566527
  -exchange      EXHF   =         0.00000000
  -V(xc)+E(xc)   XCENC  =      -998.40317335
  PAW double counting   =     19527.40487502   -18279.11429483
  entropy T*S    EENTRO =        -0.00038904
  eigenvalues    EBANDS =      1297.99568595
  atomic energy  EATOM  =     12697.67401269
  ---------------------------------------------------
  free energy    TOTEN  =      -356.48003063 eV

  energy without entropy =     -356.47964159  energy(sigma->0) =     -356.47990095


--------------------------------------------------------------------------------------------------------




--------------------------------------- Iteration      1(  23)  ---------------------------------------


    POTLOK:  cpu time    0.3928: real time    0.3928
    SETDIJ:  cpu time    0.5105: real time    0.5105
    TRIAL :  cpu time   16.9747: real time   17.1133
    CORREC:  cpu time    5.4625: real time    5.5130
    CHARGE:  cpu time    1.6522: real time    1.6575
    --------------------------------------------
      LOOP:  cpu time   24.9947: real time   25.1897

 eigenvalue-minimisations  :     0
 total energy-change (2. order) :-0.9653880E-02  (-0.7389295E-02)
 number of electron     269.9999992 magnetization      35.2193246
 augmentation part       87.0195873 magnetization      24.5921143

 Free energy of the ion-electron system (eV)
  ---------------------------------------------------
  alpha Z        PSCENC =       798.38614055
  Ewald energy   TEWEN  =    -12901.57693327
  -Hartree energ DENC   =     -2504.18105787
  -exchange      EXHF   =         0.00000000
  -V(xc)+E(xc)   XCENC  =      -998.16541395
  PAW double counting   =     19534.83562799   -18287.66163013
  entropy T*S    EENTRO =        -0.00045311
  eigenvalues    EBANDS =      1304.19995852
  atomic energy  EATOM  =     12697.67401269
  ---------------------------------------------------
  free energy    TOTEN  =      -356.48968451 eV

[...]
   45        0.018   0.019   2.374   2.412
   46        0.017   0.014   2.165   2.196
   47        0.019   0.021   2.330   2.371
   48        0.019   0.021   2.330   2.371
   49       -0.014  -0.011  -2.343  -2.368
   50        0.018   0.019   2.374   2.412
   51        0.019   0.019   2.365   2.403
   52       -0.014  -0.011  -2.343  -2.368
   53        0.019   0.019   2.365   2.403
   54        0.018   0.019   2.374   2.412
--------------------------------------------------
tot         -0.014  -0.220  34.857  34.623
 
    FORLOC:  cpu time    0.0585: real time    0.0585
    FORNL :  cpu time   25.2756: real time   25.4222
    STRESS:  cpu time   36.0744: real time   36.5002
    FORCOR:  cpu time    0.4418: real time    0.4418
    OFIELD:  cpu time    0.0023: real time    0.0023

  FORCE on cell =-STRESS in cart. coord.  units (eV):
  Direction    XX          YY          ZZ          XY          YZ          ZX
  --------------------------------------------------------------------------------------
  Alpha Z   798.38614   798.38614   798.38614
  Ewald   -4053.61603 -4053.61603 -4794.40593    -0.00000    -0.00000    -0.00000
  Hartree  1085.58311  1082.00148   334.51849    -0.00000    -0.00000    -0.00000
  E(xc)   -1141.90160 -1141.16529 -1140.04248     0.00000    -0.00000    -0.00000
  Local     366.59005   374.95938  1901.64381     0.00000    -0.00000     0.00000
  n-local  -172.69382  -170.17593  -176.00286    -0.57643    -0.16413    -0.22910
  augment   785.73015   782.68759   768.33159     0.00000     0.00001     0.00001
  Kinetic  2336.28440  2332.38253  2312.21829    -0.61261    -1.51838    -1.10779
  Fock        0.00000     0.00000     0.00000     0.00000     0.00000     0.00000
  -------------------------------------------------------------------------------------
  Total       4.36239     5.45988     4.64705     0.00000     0.00000     0.00000
  in kB       9.84535    12.32223    10.48779     0.00000     0.00000     0.00000
  external pressure =       10.89 kB  Pullay stress =        0.00 kB


 VOLUME and BASIS-vectors are now :
 -----------------------------------------------------------------------------
  energy-cutoff  :      404.80
  volume of cell :      709.91
      direct lattice vectors                 reciprocal lattice vectors
     8.250148166  0.000000000  0.000000000     0.121209944  0.000000000  0.000000000
     0.000000000  8.250148166  0.000000000     0.000000000  0.121209944  0.000000000
     0.000000000  0.000000000 10.429911392     0.000000000  0.000000000  0.095878092

  length of vectors
     8.250148166  8.250148166 10.429911392     0.121209944  0.121209944  0.095878092


 FORCES acting on ions:
    Electron-Ion                     Ewald-Force                    Non-Local-Force
 -----------------------------------------------------------------------------------------------
   -.254E-10 -.915E-01 0.305E-01   -.239E-08 -.239E-08 -.210E-08   0.542E-19 0.181E+00 -.595E-01
   -.254E-10 -.915E-01 -.305E-01   -.239E-08 -.239E-08 0.171E-08   -.108E-18 0.181E+00 0.595E-01
   -.254E-10 -.552E-02 -.490E-06   -.239E-08 -.239E-08 0.861E-08   0.000E+00 -.648E-02 0.000E+00
   -.254E-10 0.915E-01 0.305E-01   -.239E-08 -.802E-09 -.210E-08   -.136E-19 -.181E+00 -.595E-01
   -.254E-10 0.915E-01 -.305E-01   -.239E-08 -.802E-09 0.171E-08   0.000E+00 -.181E+00 0.595E-01
   -.254E-10 0.552E-02 -.490E-06   -.239E-08 -.802E-09 0.861E-08   -.271E-18 0.648E-02 -.176E-18
   -.255E-10 -.328E-08 0.979E-01   -.239E-08 0.631E-08 -.210E-08   -.108E-18 0.000E+00 -.323E-01
   -.255E-10 -.328E-08 -.979E-01   -.239E-08 0.631E-08 0.171E-08   0.542E-19 0.542E-19 0.323E-01
   -.254E-10 -.328E-08 -.486E-06   -.239E-08 0.631E-08 0.861E-08   0.232E-22 -.165E-23 -.529E-22
   -.619E-09 -.915E-01 0.305E-01   -.802E-09 -.239E-08 -.210E-08   -.108E-18 0.181E+00 -.595E-01
   -.619E-09 -.915E-01 -.305E-01   -.802E-09 -.239E-08 0.171E-08   0.166E-18 0.181E+00 0.595E-01
   -.620E-09 -.552E-02 -.490E-06   -.803E-09 -.239E-08 0.861E-08   -.542E-19 -.648E-02 0.217E-18
   -.619E-09 0.915E-01 0.305E-01   -.802E-09 -.802E-09 -.210E-08   0.339E-19 -.181E+00 -.595E-01
   -.619E-09 0.915E-01 -.305E-01   -.802E-09 -.802E-09 0.171E-08   0.542E-19 -.181E+00 0.595E-01
   -.620E-09 0.552E-02 -.490E-06   -.803E-09 -.802E-09 0.861E-08   0.163E-18 0.648E-02 0.813E-19
   -.634E-09 -.328E-08 0.979E-01   -.802E-09 0.631E-08 -.210E-08   -.271E-19 0.542E-19 -.323E-01
   -.634E-09 -.328E-08 -.979E-01   -.802E-09 0.631E-08 0.171E-08   0.542E-19 0.163E-18 0.323E-01
   -.621E-09 -.328E-08 -.486E-06   -.803E-09 0.631E-08 0.861E-08   0.496E-23 0.827E-24 -.371E-21
   -.378E-08 -.915E-01 0.305E-01   0.631E-08 -.239E-08 -.210E-08   -.163E-18 0.181E+00 -.595E-01
   -.378E-08 -.915E-01 -.305E-01   0.631E-08 -.239E-08 0.171E-08   -.105E-18 0.181E+00 0.595E-01
   -.378E-08 -.552E-02 -.490E-06   0.631E-08 -.239E-08 0.861E-08   0.271E-18 -.648E-02 -.813E-19
   -.378E-08 0.915E-01 0.305E-01   0.631E-08 -.802E-09 -.210E-08   0.407E-19 -.181E+00 -.595E-01
   -.378E-08 0.915E-01 -.305E-01   0.631E-08 -.802E-09 0.171E-08   -.163E-18 -.181E+00 0.595E-01
   -.378E-08 0.552E-02 -.490E-06   0.631E-08 -.802E-09 0.861E-08   0.434E-18 0.648E-02 -.678E-19
   -.381E-08 -.328E-08 0.979E-01   0.631E-08 0.631E-08 -.210E-08   -.813E-19 0.271E-18 -.323E-01
   -.381E-08 -.328E-08 -.979E-01   0.631E-08 0.631E-08 0.171E-08   0.542E-19 0.325E-18 0.323E-01
   -.378E-08 -.328E-08 -.486E-06   0.631E-08 0.631E-08 0.861E-08   -.662E-23 0.124E-23 0.212E-21
   0.522E-08 0.472E-08 0.268E-05   -.169E-07 -.169E-07 -.180E-07   0.000E+00 0.199E-22 0.635E-21
   0.521E-08 0.482E-08 -.198E+00   -.169E-07 -.169E-07 -.170E-08   -.542E-19 -.488E-18 0.221E+00
   0.521E-08 0.482E-08 0.198E+00   -.169E-07 -.169E-07 0.115E-07   0.108E-18 -.596E-18 -.221E+00
   0.525E-08 0.238E+00 0.251E-05   -.169E-07 0.802E-09 -.180E-07   0.217E-17 -.739E-01 -.542E-18
   0.523E-08 -.396E-01 -.376E-01   -.169E-07 0.802E-09 -.170E-08   -.163E-18 0.281E-01 0.129E-01
   0.523E-08 -.396E-01 0.376E-01   -.169E-07 0.802E-09 0.115E-07   -.352E-18 0.281E-01 -.129E-01
   0.525E-08 -.238E+00 0.251E-05   -.169E-07 0.130E-07 -.180E-07   0.173E-17 0.739E-01 0.108E-17
   0.523E-08 0.396E-01 -.376E-01   -.169E-07 0.130E-07 -.170E-08   0.298E-18 -.281E-01 0.129E-01
   0.523E-08 0.396E-01 0.376E-01   -.169E-07 0.130E-07 0.115E-07   0.379E-18 -.281E-01 -.129E-01
   0.867E-11 0.472E-08 0.268E-05   0.802E-09 -.169E-07 -.180E-07   -.331E-23 -.232E-22 0.582E-21
   0.868E-11 0.482E-08 -.198E+00   0.802E-09 -.169E-07 -.170E-08   -.813E-19 0.651E-18 0.221E+00
   0.868E-11 0.482E-08 0.198E+00   0.802E-09 -.169E-07 0.115E-07   -.136E-18 -.596E-18 -.221E+00
   0.864E-11 0.238E+00 0.251E-05   0.802E-09 0.802E-09 -.180E-07   0.434E-18 -.739E-01 -.651E-18
   0.866E-11 -.396E-01 -.376E-01   0.802E-09 0.802E-09 -.170E-08   -.108E-18 0.281E-01 0.129E-01
   0.865E-11 -.396E-01 0.376E-01   0.802E-09 0.802E-09 0.115E-07   0.271E-18 0.281E-01 -.129E-01
   0.865E-11 -.238E+00 0.251E-05   0.802E-09 0.130E-07 -.180E-07   -.390E-17 0.739E-01 0.108E-17
   0.865E-11 0.396E-01 -.376E-01   0.802E-09 0.130E-07 -.170E-08   0.298E-18 -.281E-01 0.129E-01
   0.865E-11 0.396E-01 0.376E-01   0.802E-09 0.130E-07 0.115E-07   0.000E+00 -.281E-01 -.129E-01
   -.526E-08 0.471E-08 0.268E-05   0.130E-07 -.169E-07 -.180E-07   -.331E-23 0.397E-22 0.000E+00
   -.526E-08 0.482E-08 -.198E+00   0.130E-07 -.169E-07 -.170E-08   -.813E-19 -.488E-18 0.221E+00
   -.526E-08 0.482E-08 0.198E+00   0.130E-07 -.169E-07 0.115E-07   -.244E-18 -.108E-18 -.221E+00
   -.529E-08 0.238E+00 0.251E-05   0.130E-07 0.802E-09 -.180E-07   -.867E-18 -.739E-01 -.325E-18
   -.527E-08 -.396E-01 -.376E-01   0.130E-07 0.802E-09 -.170E-08   -.163E-18 0.281E-01 0.129E-01
   -.527E-08 -.396E-01 0.376E-01   0.130E-07 0.802E-09 0.115E-07   -.190E-18 0.281E-01 -.129E-01
   -.529E-08 -.238E+00 0.251E-05   0.130E-07 0.130E-07 -.180E-07   0.304E-17 0.739E-01 0.651E-18
   -.527E-08 0.396E-01 -.376E-01   0.130E-07 0.130E-07 -.170E-08   0.379E-18 -.281E-01 0.129E-01
   -.527E-08 0.396E-01 0.376E-01   0.130E-07 0.130E-07 0.115E-07   -.542E-19 -.281E-01 -.129E-01
 -----------------------------------------------------------------------------------------------
   -.449E-07 -.410E-07 0.211E-04   -.614E-13 -.142E-13 0.128E-13   0.289E-17 -.101E-15 0.590E-16
 
 
 POSITION                                       TOTAL-FORCE (eV/Angst)
 -----------------------------------------------------------------------------------
      0.00000      0.00000      0.00000         0.000000      0.073844     -0.022850
      0.00000      0.00000      3.47664         0.000000      0.073844      0.022850
      0.00000      0.00000      6.95327        -0.000000     -0.011736      0.000000
      0.00000      2.75005      0.00000         0.000000     -0.073844     -0.022850
      0.00000      2.75005      3.47664        -0.000000     -0.073844      0.022850
      0.00000      2.75005      6.95327         0.000000      0.011736      0.000000
      0.00000      5.50010      0.00000         0.000000      0.000000      0.069341
      0.00000      5.50010      3.47664         0.000000      0.000000     -0.069341
      0.00000      5.50010      6.95327        -0.000000      0.000000      0.000000
      2.75005      0.00000      0.00000         0.000000      0.073844     -0.022850
      2.75005      0.00000      3.47664         0.000000      0.073844      0.022850
      2.75005      0.00000      6.95327         0.000000     -0.011736      0.000000
      2.75005      2.75005      0.00000        -0.000000     -0.073844     -0.022850
      2.75005      2.75005      3.47664        -0.000000     -0.073844      0.022850
      2.75005      2.75005      6.95327         0.000000      0.011736      0.000000
      2.75005      5.50010      0.00000         0.000000      0.000000      0.069341
      2.75005      5.50010      3.47664         0.000000      0.000000     -0.069341
      2.75005      5.50010      6.95327         0.000000      0.000000      0.000000
      5.50010      0.00000      0.00000        -0.000000      0.073844     -0.022850
      5.50010      0.00000      3.47664         0.000000      0.073844      0.022850
      5.50010      0.00000      6.95327        -0.000000     -0.011736      0.000000
      5.50010      2.75005      0.00000         0.000000     -0.073844     -0.022850
      5.50010      2.75005      3.47664         0.000000     -0.073844      0.022850
      5.50010      2.75005      6.95327        -0.000000      0.011736      0.000000
      5.50010      5.50010      0.00000         0.000000      0.000000      0.069341
      5.50010      5.50010      3.47664        -0.000000      0.000000     -0.069341
      5.50010      5.50010      6.95327        -0.000000      0.000000      0.000000
      1.37502      1.37502      1.73832         0.000000      0.000000      0.000000
      1.37502      1.37502      5.21496         0.000000      0.000000      0.022781
      1.37502      1.37502      8.69159         0.000000      0.000000     -0.022781
      1.37502      4.12507      1.73832         0.000000      0.165433      0.000000
      1.37502      4.12507      5.21496         0.000000     -0.011036     -0.018857
      1.37502      4.12507      8.69159        -0.000000     -0.011036      0.018857
      1.37502      6.87512      1.73832         0.000000     -0.165433      0.000000
      1.37502      6.87512      5.21496         0.000000      0.011036     -0.018857
      1.37502      6.87512      8.69159        -0.000000      0.011036      0.018857
      4.12507      1.37502      1.73832         0.000000      0.000000      0.000000
      4.12507      1.37502      5.21496         0.000000      0.000000      0.022781
      4.12507      1.37502      8.69159         0.000000      0.000000     -0.022781
      4.12507      4.12507      1.73832         0.000000      0.165433      0.000000
      4.12507      4.12507      5.21496         0.000000     -0.011036     -0.018857
      4.12507      4.12507      8.69159         0.000000     -0.011036      0.018857
      4.12507      6.87512      1.73832         0.000000     -0.165433      0.000000
      4.12507      6.87512      5.21496         0.000000      0.011036     -0.018857
      4.12507      6.87512      8.69159         0.000000      0.011036      0.018857
      6.87512      1.37502      1.73832         0.000000      0.000000      0.000000
      6.87512      1.37502      5.21496        -0.000000      0.000000      0.022781
      6.87512      1.37502      8.69159        -0.000000      0.000000     -0.022781
      6.87512      4.12507      1.73832        -0.000000      0.165433      0.000000
      6.87512      4.12507      5.21496         0.000000     -0.011036     -0.018857
      6.87512      4.12507      8.69159         0.000000     -0.011036      0.018857
      6.87512      6.87512      1.73832         0.000000     -0.165433      0.000000
      6.87512      6.87512      5.21496        -0.000000      0.011036     -0.018857
      6.87512      6.87512      8.69159         0.000000      0.011036      0.018857
 -----------------------------------------------------------------------------------
    total drift:                               -0.000000     -0.000000      0.000021


--------------------------------------------------------------------------------------------------------



  FREE ENERGIE OF THE ION-ELECTRON SYSTEM (eV)
  ---------------------------------------------------
  free  energy   TOTEN  =      -356.52052455 eV

  energy  without entropy=     -356.52506872  energy(sigma->0) =     -356.52203927
 


--------------------------------------------------------------------------------------------------------


    POTLOK:  cpu time    1.7183: real time    1.7278


--------------------------------------------------------------------------------------------------------


     LOOP+:  cpu time 1653.2985: real time 1669.8065
    4ORBIT:  cpu time    0.0000: real time    0.0000
 


 total charge     
 
# of ion       s       p       d       tot
------------------------------------------
    1        0.405   0.429   0.000   0.834
    2        0.405   0.428   0.000   0.833
    3        0.404   0.429   0.000   0.833
    4        0.405   0.428   0.000   0.833
    5        0.405   0.429   0.000   0.834
    6        0.404   0.429   0.000   0.833
    7        0.405   0.426   0.000   0.831
    8        0.405   0.426   0.000   0.831
    9        0.404   0.430   0.000   0.834
   10        0.405   0.429   0.000   0.834
   11        0.405   0.428   0.000   0.833
   12        0.404   0.429   0.000   0.833
   13        0.405   0.428   0.000   0.833
   14        0.405   0.429   0.000   0.834
   15        0.404   0.429   0.000   0.833
   16        0.405   0.426   0.000   0.831
   17        0.405   0.426   0.000   0.831
   18        0.404   0.430   0.000   0.834
   19        0.405   0.429   0.000   0.834
   20        0.405   0.428   0.000   0.833
   21        0.404   0.429   0.000   0.833
   22        0.405   0.428   0.000   0.833
   23        0.405   0.429   0.000   0.834
   24        0.404   0.429   0.000   0.833
   25        0.405   0.426   0.000   0.831
   26        0.405   0.426   0.000   0.831
   27        0.404   0.430   0.000   0.834
   28        0.333   0.356   5.133   5.822
   29        0.333   0.351   5.139   5.822
   30        0.333   0.351   5.139   5.822
   31        0.334   0.352   5.134   5.820
   32        0.333   0.352   5.136   5.821
   33        0.333   0.351   5.136   5.819
   34        0.334   0.352   5.134   5.820
   35        0.333   0.351   5.136   5.819
   36        0.333   0.352   5.136   5.821
   37        0.333   0.356   5.133   5.822
   38        0.333   0.351   5.139   5.822
   39        0.333   0.351   5.139   5.822
   40        0.334   0.352   5.134   5.820
   41        0.333   0.352   5.136   5.821
   42        0.333   0.351   5.136   5.819
   43        0.334   0.352   5.134   5.820
   44        0.333   0.351   5.136   5.819
   45        0.333   0.352   5.136   5.821
   46        0.333   0.356   5.133   5.822
   47        0.333   0.351   5.139   5.822
   48        0.333   0.351   5.139   5.822
   49        0.334   0.352   5.134   5.820
   50        0.333   0.352   5.136   5.821
   51        0.333   0.351   5.136   5.819
   52        0.334   0.352   5.134   5.820
   53        0.333   0.351   5.136   5.819
   54        0.333   0.352   5.136   5.821
--------------------------------------------------
tot         19.920  21.064 138.666 179.650
 


 magnetization (x)
 
# of ion       s       p       d       tot
------------------------------------------
    1       -0.009  -0.017   0.000  -0.026
    2       -0.010  -0.017   0.000  -0.026
    3       -0.022  -0.039   0.000  -0.060
    4       -0.010  -0.017   0.000  -0.026
    5       -0.009  -0.017   0.000  -0.026
    6       -0.022  -0.039   0.000  -0.060
    7       -0.001  -0.002   0.000  -0.002
    8       -0.001  -0.002   0.000  -0.002
    9       -0.022  -0.037   0.000  -0.059
   10       -0.009  -0.017   0.000  -0.026
   11       -0.010  -0.017   0.000  -0.026
   12       -0.022  -0.039   0.000  -0.060
   13       -0.010  -0.017   0.000  -0.026
   14       -0.009  -0.017   0.000  -0.026
   15       -0.022  -0.039   0.000  -0.060
   16       -0.001  -0.002   0.000  -0.002
   17       -0.001  -0.002   0.000  -0.002
   18       -0.022  -0.037   0.000  -0.059
   19       -0.009  -0.017   0.000  -0.026
   20       -0.010  -0.017   0.000  -0.026
   21       -0.022  -0.039   0.000  -0.060
   22       -0.010  -0.017   0.000  -0.026
   23       -0.009  -0.017   0.000  -0.026
   24       -0.022  -0.039   0.000  -0.060
   25       -0.001  -0.002   0.000  -0.002
   26       -0.001  -0.002   0.000  -0.002
   27       -0.022  -0.037   0.000  -0.059
   28        0.017   0.014   2.165   2.196
   29        0.019   0.021   2.330   2.371
   30        0.019   0.021   2.330   2.371
   31       -0.014  -0.011  -2.343  -2.368
   32        0.018   0.019   2.374   2.412
   33        0.019   0.019   2.365   2.403
   34       -0.014  -0.011  -2.343  -2.368
   35        0.019   0.019   2.365   2.403
   36        0.018   0.019   2.374   2.412
   37        0.017   0.014   2.165   2.196
   38        0.019   0.021   2.330   2.371
   39        0.019   0.021   2.330   2.371
   40       -0.014  -0.011  -2.343  -2.368
   41        0.018   0.019   2.374   2.412
   42        0.019   0.019   2.365   2.403
   43       -0.014  -0.011  -2.343  -2.368
   44        0.019   0.019   2.365   2.403
   45        0.018   0.019   2.374   2.412
   46        0.017   0.014   2.165   2.196
   47        0.019   0.021   2.330   2.371
   48        0.019   0.021   2.330   2.371
   49       -0.014  -0.011  -2.343  -2.368
   50        0.018   0.019   2.374   2.412
   51        0.019   0.019   2.365   2.403
   52       -0.014  -0.011  -2.343  -2.368
   53        0.019   0.019   2.365   2.403
   54        0.018   0.019   2.374   2.412
--------------------------------------------------
tot         -0.014  -0.220  34.857  34.623
 

 total amount of memory used by VASP MPI-rank0   950766. kBytes
=======================================================================

   base      :      30000. kBytes
   nonl-proj :      28494. kBytes
   fftplans  :      31580. kBytes
   grid      :      21385. kBytes
   one-center:        435. kBytes
   wavefun   :     838872. kBytes
 
  
  
 General timing and accounting informations for this job:
 ========================================================
  
                  Total CPU time used (sec):     1687.109
                            User time (sec):     1662.256
                          System time (sec):       24.854
                         Elapsed time (sec):     1706.782
  
                   Maximum memory used (kb):     1120332.
                   Average memory used (kb):           0.
  
                          Minor page faults:       534001
                          Major page faults:           21
                 Voluntary context switches:         2588
