 vasp.5.4.4.18Apr17-6-g9f103f2a35 (build Dec 20 2018 12:05:58) complex          
  
 executed on             LinuxIFC date 2019.06.20  20:16:34
 running on   32 total cores
 distrk:  each k-point on    8 cores,    4 groups
 distr:  one band on NCORES_PER_BAND=   4 cores,    2 groups


--------------------------------------------------------------------------------------------------------


 INCAR:
 POTCAR:    PAW_PBE Al 04Jan2001                  
 POTCAR:    PAW_PBE Mn 06Sep2000                  

 ----------------------------------------------------------------------------- 
|                                                                             |
|           W    W    AA    RRRRR   N    N  II  N    N   GGGG   !!!           |
|           W    W   A  A   R    R  NN   N  II  NN   N  G    G  !!!           |
|           W    W  A    A  R    R  N N  N  II  N N  N  G       !!!           |
|           W WW W  AAAAAA  RRRRR   N  N N  II  N  N N  G  GGG   !            |
|           WW  WW  A    A  R   R   N   NN  II  N   NN  G    G                |
|           W    W  A    A  R    R  N    N  II  N    N   GGGG   !!!           |
|                                                                             |
|      You have enabled k-point parallelism (KPAR>1).                         |
|      This developmental code was originally  written by Paul Kent at ORNL,  |
|      and carefully double checked in Vienna.                                |
|      GW as well as linear response parallelism added by Martijn Marsman     |
|      and Georg Kresse.                                                      |
|      Carefully verify results versus KPAR=1.                                |
|      Report problems to Paul Kent and Vienna.                               |
|                                                                             |
 ----------------------------------------------------------------------------- 

 POTCAR:    PAW_PBE Al 04Jan2001                  
   VRHFIN =Al: s2p1                                                             
   LEXCH  = PE                                                                  
   EATOM  =    53.5387 eV,    3.9350 Ry                                         
                                                                                
   TITEL  = PAW_PBE Al 04Jan2001                                                
   LULTRA =        F    use ultrasoft PP ?                                      
   IUNSCR =        1    unscreen: 0-lin 1-nonlin 2-no                           
   RPACOR =    1.500    partial core radius                                     
   POMASS =   26.981; ZVAL   =    3.000    mass and valenz                      
   RCORE  =    1.900    outmost cutoff radius                                   
   RWIGS  =    2.650; RWIGS  =    1.402    wigner-seitz radius (au A)           
   ENMAX  =  240.300; ENMIN  =  180.225 eV                                      
   ICORE  =        2    local potential                                         
   LCOR   =        T    correct aug charges                                     
   LPAW   =        T    paw PP                                                  
   EAUG   =  291.052                                                            
   DEXC   =    0.000                                                            
   RMAX   =    1.939    core radius for proj-oper                               
   RAUG   =    1.300    factor for augmentation sphere                          
   RDEP   =    1.966    radius for radial grids                                 
   RDEPT  =    1.856    core radius for aug-charge                              
                                                                                
   Atomic configuration                                                         
    6 entries                                                                   
     n  l   j            E        occ.                                          
     1  0  0.50     -1511.1048   2.0000                                         
     2  0  0.50      -108.1629   2.0000                                         
     2  1  1.50       -69.6402   6.0000                                         
     3  0  0.50        -7.7528   2.0000                                         
     3  1  1.50        -2.7121   1.0000                                         
     3  2  2.50        -2.7212   0.0000                                         
   Description                                                                  
     l       E           TYP  RCUT    TYP  RCUT                                 
     0     -7.7528455     23  1.900                                             
     0     -3.3096929     23  1.900                                             
     1     -2.7120682     23  1.900                                             
     1     13.6058260     23  1.900                                             
     2     -2.7211652      7  1.900                                             
  local pseudopotential read in
  partial core-charges read in
  partial kinetic energy density read in
  atomic valenz-charges read in
  non local Contribution for L=           0  read in
    real space projection operators read in
  non local Contribution for L=           0  read in
    real space projection operators read in
  non local Contribution for L=           1  read in
    real space projection operators read in
  non local Contribution for L=           1  read in
    real space projection operators read in
    PAW grid and wavefunctions read in
 
   number of l-projection  operators is LMAX  =           4
   number of lm-projection operators is LMMAX =           8
 
 POTCAR:    PAW_PBE Mn 06Sep2000                  
   VRHFIN =Mn: d6 s1                                                            
   LEXCH  = PE                                                                  
   EATOM  =   416.7541 eV,   30.6306 Ry                                         
                                                                                
   TITEL  = PAW_PBE Mn 06Sep2000                                                
   LULTRA =        F    use ultrasoft PP ?                                      
   IUNSCR =        1    unscreen: 0-lin 1-nonlin 2-no                           
   RPACOR =    2.000    partial core radius                                     
   POMASS =   54.938; ZVAL   =    7.000    mass and valenz                      
   RCORE  =    2.300    outmost cutoff radius                                   
   RWIGS  =    2.500; RWIGS  =    1.323    wigner-seitz radius (au A)           
   ENMAX  =  269.864; ENMIN  =  202.398 eV                                      
   RCLOC  =    1.725    cutoff for local pot                                    
   LCOR   =        T    correct aug charges                                     
   LPAW   =        T    paw PP                                                  
   EAUG   =  500.711                                                            
   DEXC   =    0.000                                                            
   RMAX   =    2.343    core radius for proj-oper                               
   RAUG   =    1.300    factor for augmentation sphere                          
   RDEP   =    2.338    radius for radial grids                                 
   RDEPT  =    1.911    core radius for aug-charge                              
                                                                                
   Atomic configuration                                                         
    9 entries                                                                   
     n  l   j            E        occ.                                          
     1  0  0.50     -6424.8288   2.0000                                         
     2  0  0.50      -739.1154   2.0000                                         
     2  1  1.50      -625.3949   6.0000                                         
     3  0  0.50       -81.6100   2.0000                                         
     3  1  1.50       -50.4667   6.0000                                         
     3  2  2.50        -3.3745   6.0000                                         
     4  0  0.50        -4.1331   1.0000                                         
     4  1  0.50        -4.0817   0.0000                                         
     4  3  2.50        -1.3606   0.0000                                         
   Description                                                                  
     l       E           TYP  RCUT    TYP  RCUT                                 
     2     -3.3744664     23  2.300                                             
     2     -4.7350490     23  2.300                                             
     0     -4.1331408     23  2.300                                             
     0      7.6656614     23  2.300                                             
     1     -2.7211652     23  2.300                                             
     1     20.4087390     23  2.300                                             
  local pseudopotential read in
  partial core-charges read in
  partial kinetic energy density read in
  atomic valenz-charges read in
  non local Contribution for L=           2  read in
    real space projection operators read in
  non local Contribution for L=           2  read in
    real space projection operators read in
  non local Contribution for L=           0  read in
    real space projection operators read in
  non local Contribution for L=           0  read in
    real space projection operators read in
  non local Contribution for L=           1  read in
    real space projection operators read in
  non local Contribution for L=           1  read in
    real space projection operators read in
    PAW grid and wavefunctions read in
 
   number of l-projection  operators is LMAX  =           6
   number of lm-projection operators is LMMAX =          18
 

 ----------------------------------------------------------------------------- 
|                                                                             |
|  ADVICE TO THIS USER RUNNING 'VASP/VAMP'   (HEAR YOUR MASTER'S VOICE ...):  |
|                                                                             |
|      You have a (more or less) 'large supercell' and for larger cells       |
|      it might be more efficient to use real space projection opertators     |
|      So try LREAL= Auto  in the INCAR   file.                               |
|      Mind:          For very  accurate calculation you might also keep the  |
|      reciprocal projection scheme          (i.e. LREAL=.FALSE.)             |
|                                                                             |
 ----------------------------------------------------------------------------- 

  PAW_PBE Al 04Jan2001                  :
 energy of atom  1       EATOM=  -53.5387
 kinetic energy error for atom=    0.0005 (will be added to EATOM!!)
  PAW_PBE Mn 06Sep2000                  :
 energy of atom  2       EATOM= -416.7541
 kinetic energy error for atom=    0.0080 (will be added to EATOM!!)
 
 
 POSCAR: NewRef: 27, @ ['Mn', array([1.37502469, 
  positions in cartesian coordinates
  velocities in cartesian coordinates
  No initial velocities read in
 exchange correlation table for  LEXCH =        8
   RHO(1)=    0.500       N(1)  =     2000
   RHO(2)=  100.500       N(2)  =     4000
 


--------------------------------------------------------------------------------------------------------


 ion  position               nearest neighbor table
   1  0.000  0.000  0.000-  28 2.61  30 2.61  34 2.61  36 2.61  46 2.61  48 2.61  52 2.61  54 2.61
                             4 2.75  10 2.75   7 2.75  19 2.75
   2  0.000  0.000  0.333-  28 2.61  34 2.61  46 2.61  52 2.61  29 2.61  47 2.61  35 2.61  53 2.61
                             5 2.75  11 2.75   8 2.75  20 2.75
   3  0.000  0.000  0.667-  29 2.61  35 2.61  47 2.61  53 2.61  30 2.61  48 2.61  36 2.61  54 2.61
                             6 2.75  12 2.75   9 2.75  21 2.75
   4  0.000  0.333  0.000-  28 2.61  30 2.61  46 2.61  48 2.61  31 2.61  33 2.61  49 2.61  51 2.61
                            13 2.75   1 2.75   7 2.75  22 2.75
   5  0.000  0.333  0.333-  28 2.61  46 2.61  31 2.61  49 2.61  47 2.61  29 2.61  32 2.61  50 2.61
                            14 2.75   2 2.75   8 2.75  23 2.75
   6  0.000  0.333  0.667-  29 2.61  47 2.61  32 2.61  50 2.61  48 2.61  30 2.61  33 2.61  51 2.61
                            15 2.75   3 2.75   9 2.75  24 2.75
   7  0.000  0.667  0.000-  31 2.61  33 2.61  49 2.61  51 2.61  34 2.61  36 2.61  52 2.61  54 2.61
                             4 2.75  16 2.75   1 2.75  25 2.75
   8  0.000  0.667  0.333-  31 2.61  49 2.61  34 2.61  52 2.61  50 2.61  32 2.61  35 2.61  53 2.61
                             5 2.75  17 2.75   2 2.75  26 2.75
   9  0.000  0.667  0.667-  32 2.61  50 2.61  35 2.61  53 2.61  51 2.61  33 2.61  36 2.61  54 2.61
                             6 2.75  18 2.75   3 2.75  27 2.75
  10  0.333  0.000  0.000-  28 2.61  30 2.61  34 2.61  36 2.61  37 2.61  39 2.61  43 2.61  45 2.61
                            19 2.75   1 2.75  13 2.75  16 2.75
  11  0.333  0.000  0.333-  28 2.61  34 2.61  37 2.61  43 2.61  29 2.61  35 2.61  38 2.61  44 2.61
                            20 2.75   2 2.75  14 2.75  17 2.75
  12  0.333  0.000  0.667-  29 2.61  35 2.61  38 2.61  44 2.61  30 2.61  36 2.61  39 2.61  45 2.61
                            21 2.75   3 2.75  15 2.75  18 2.75
  13  0.333  0.333  0.000-  28 2.61  30 2.61  31 2.61  33 2.61  37 2.61  39 2.61  40 2.61  42 2.61
                             4 2.75  10 2.75  16 2.75  22 2.75
  14  0.333  0.333  0.333-  28 2.61  31 2.61  37 2.61  29 2.61  40 2.61  38 2.61  32 2.61  41 2.61
                             5 2.75  11 2.75  17 2.75  23 2.75
  15  0.333  0.333  0.667-  29 2.61  32 2.61  38 2.61  30 2.61  41 2.61  39 2.61  33 2.61  42 2.61
                             6 2.75  12 2.75  18 2.75  24 2.75
  16  0.333  0.667  0.000-  31 2.61  33 2.61  34 2.61  36 2.61  40 2.61  42 2.61  43 2.61  45 2.61
                            25 2.75   7 2.75  13 2.75  10 2.75
  17  0.333  0.667  0.333-  31 2.61  34 2.61  40 2.61  32 2.61  43 2.61  41 2.61  35 2.61  44 2.61
                            26 2.75   8 2.75  14 2.75  11 2.75
  18  0.333  0.667  0.667-  32 2.61  35 2.61  41 2.61  33 2.61  44 2.61  42 2.61  36 2.61  45 2.61
                            27 2.75   9 2.75  15 2.75  12 2.75
  19  0.667  0.000  0.000-  37 2.61  39 2.61  43 2.61  45 2.61  46 2.61  48 2.61  52 2.61  54 2.61
                            10 2.75  22 2.75   1 2.75  25 2.75
  20  0.667  0.000  0.333-  37 2.61  43 2.61  46 2.61  52 2.61  38 2.61  44 2.61  47 2.61  53 2.61
                            11 2.75  23 2.75   2 2.75  26 2.75
  21  0.667  0.000  0.667-  38 2.61  44 2.61  47 2.61  53 2.61  39 2.61  45 2.61  48 2.61  54 2.61
                            12 2.75  24 2.75   3 2.75  27 2.75
  22  0.667  0.333  0.000-  37 2.61  39 2.61  40 2.61  42 2.61  46 2.61  48 2.61  49 2.61  51 2.61
                            25 2.75  13 2.75  19 2.75   4 2.75
  23  0.667  0.333  0.333-  37 2.61  40 2.61  46 2.61  38 2.61  49 2.61  47 2.61  41 2.61  50 2.61
                            26 2.75  14 2.75  20 2.75   5 2.75
  24  0.667  0.333  0.667-  38 2.61  41 2.61  47 2.61  39 2.61  50 2.61  48 2.61  42 2.61  51 2.61
                            27 2.75  15 2.75  21 2.75   6 2.75
  25  0.667  0.667  0.000-  40 2.61  42 2.61  43 2.61  45 2.61  49 2.61  51 2.61  52 2.61  54 2.61
                            16 2.75  22 2.75  19 2.75   7 2.75
  26  0.667  0.667  0.333-  40 2.61  43 2.61  49 2.61  41 2.61  52 2.61  50 2.61  44 2.61  53 2.61
                            17 2.75  23 2.75  20 2.75   8 2.75
  27  0.667  0.667  0.667-  41 2.61  44 2.61  50 2.61  42 2.61  53 2.61  51 2.61  45 2.61  54 2.61
                            18 2.75  24 2.75  21 2.75   9 2.75
  28  0.167  0.167  0.167-  14 2.61  11 2.61   5 2.61  13 2.61   2 2.61  10 2.61   4 2.61   1 2.61
                            31 2.75  37 2.75  34 2.75  46 2.75
  29  0.167  0.167  0.500-  15 2.61  12 2.61   6 2.61  14 2.61   3 2.61  11 2.61   5 2.61   2 2.61
                            32 2.75  38 2.75  35 2.75  47 2.75
  30  0.167  0.167  0.833-  13 2.61  15 2.61  10 2.61  12 2.61   4 2.61   6 2.61   1 2.61   3 2.61
                            33 2.75  39 2.75  36 2.75  48 2.75
  31  0.167  0.500  0.167-  17 2.61  14 2.61   8 2.61  16 2.61   5 2.61  13 2.61   7 2.61   4 2.61
                            28 2.75  34 2.75  40 2.75  49 2.75
  32  0.167  0.500  0.500-  18 2.61  15 2.61   9 2.61  17 2.61   6 2.61  14 2.61   8 2.61   5 2.61
                            29 2.75  35 2.75  41 2.75  50 2.75
  33  0.167  0.500  0.833-  16 2.61  18 2.61  13 2.61  15 2.61   7 2.61   9 2.61   4 2.61   6 2.61
                            30 2.75  36 2.75  42 2.75  51 2.75
  34  0.167  0.833  0.167-  11 2.61  17 2.61   2 2.61   8 2.61  16 2.61  10 2.61   7 2.61   1 2.61
                            31 2.75  43 2.75  28 2.75  52 2.75
  35  0.167  0.833  0.500-  12 2.61  18 2.61   3 2.61   9 2.61  17 2.61  11 2.61   8 2.61   2 2.61
                            32 2.75  44 2.75  29 2.75  53 2.75
  36  0.167  0.833  0.833-  10 2.61  12 2.61  16 2.61  18 2.61   1 2.61   3 2.61   7 2.61   9 2.61
                            33 2.75  45 2.75  30 2.75  54 2.75
  37  0.500  0.167  0.167-  23 2.61  20 2.61  14 2.61  22 2.61  11 2.61  19 2.61  13 2.61  10 2.61
                            28 2.75  40 2.75  46 2.75  43 2.75
  38  0.500  0.167  0.500-  24 2.61  21 2.61  15 2.61  23 2.61  12 2.61  20 2.61  14 2.61  11 2.61
                            29 2.75  41 2.75  47 2.75  44 2.75
  39  0.500  0.167  0.833-  22 2.61  24 2.61  19 2.61  21 2.61  13 2.61  15 2.61  10 2.61  12 2.61
                            30 2.75  42 2.75  48 2.75  45 2.75
  40  0.500  0.500  0.167-  26 2.61  23 2.61  17 2.61  25 2.61  14 2.61  22 2.61  16 2.61  13 2.61
                            31 2.75  37 2.75  43 2.75  49 2.75
  41  0.500  0.500  0.500-  27 2.61  24 2.61  18 2.61  26 2.61  15 2.61  23 2.61  17 2.61  14 2.61
                            32 2.75  38 2.75  44 2.75  50 2.75
  42  0.500  0.500  0.833-  25 2.61  27 2.61  22 2.61  24 2.61  16 2.61  18 2.61  13 2.61  15 2.61
                            33 2.75  39 2.75  45 2.75  51 2.75
  43  0.500  0.833  0.167-  20 2.61  26 2.61  11 2.61  17 2.61  25 2.61  19 2.61  16 2.61  10 2.61
                            34 2.75  40 2.75  52 2.75  37 2.75
  44  0.500  0.833  0.500-  21 2.61  27 2.61  12 2.61  18 2.61  26 2.61  20 2.61  17 2.61  11 2.61
                            35 2.75  41 2.75  53 2.75  38 2.75
  45  0.500  0.833  0.833-  19 2.61  21 2.61  25 2.61  27 2.61  10 2.61  12 2.61  16 2.61  18 2.61
                            36 2.75  42 2.75  54 2.75  39 2.75
  46  0.833  0.167  0.167-   5 2.61  23 2.61  20 2.61   2 2.61  22 2.61   4 2.61  19 2.61   1 2.61
                            37 2.75  49 2.75  28 2.75  52 2.75
  47  0.833  0.167  0.500-   6 2.61  24 2.61  21 2.61   3 2.61  23 2.61   5 2.61  20 2.61   2 2.61
                            38 2.75  50 2.75  29 2.75  53 2.75
  48  0.833  0.167  0.833-   4 2.61   6 2.61  22 2.61  24 2.61  19 2.61  21 2.61   1 2.61   3 2.61
                            39 2.75  51 2.75  30 2.75  54 2.75
  49  0.833  0.500  0.167-   8 2.61  26 2.61  23 2.61   5 2.61  25 2.61   7 2.61  22 2.61   4 2.61
                            40 2.75  46 2.75  52 2.75  31 2.75
  50  0.833  0.500  0.500-   9 2.61  27 2.61  24 2.61   6 2.61  26 2.61   8 2.61  23 2.61   5 2.61
                            41 2.75  47 2.75  53 2.75  32 2.75
  51  0.833  0.500  0.833-   7 2.61   9 2.61  25 2.61  27 2.61  22 2.61  24 2.61   4 2.61   6 2.61
                            42 2.75  48 2.75  54 2.75  33 2.75
  52  0.833  0.833  0.167-   2 2.61   8 2.61  20 2.61  26 2.61  19 2.61   7 2.61  25 2.61   1 2.61
                            43 2.75  49 2.75  46 2.75  34 2.75
  53  0.833  0.833  0.500-   3 2.61   9 2.61  21 2.61  27 2.61  20 2.61   8 2.61  26 2.61   2 2.61
                            44 2.75  50 2.75  47 2.75  35 2.75
  54  0.833  0.833  0.833-   1 2.61   3 2.61   7 2.61   9 2.61  19 2.61  21 2.61  25 2.61  27 2.61
                            45 2.75  51 2.75  48 2.75  36 2.75
 
  LATTYP: Found a simple tetragonal cell.
 ALAT       =     8.2501481662
 C/A-ratio  =     1.2642089792
  
  Lattice vectors:
  
 A1 = (   8.2501481662,   0.0000000000,   0.0000000000)
 A2 = (   0.0000000000,   8.2501481662,   0.0000000000)
 A3 = (   0.0000000000,   0.0000000000,  10.4299113916)


Analysis of symmetry for initial positions (statically):
=====================================================================
 Subroutine PRICEL returns following result:
 
  LATTYP: Found a simple tetragonal cell.
 ALAT       =     2.7500493888
 C/A-ratio  =     1.2642089792
  
  Lattice vectors:
  
 A1 = (   2.7500493888,   0.0000000000,   0.0000000000)
 A2 = (   0.0000000000,   2.7500493888,   0.0000000000)
 A3 = (   0.0000000000,   0.0000000000,   3.4766371306)
 
  27 primitive cells build up your supercell.
 

 Routine SETGRP: Setting up the symmetry group for a 
 simple tetragonal supercell.


 Subroutine GETGRP returns: Found 16 space group operations
 (whereof 16 operations were pure point group operations)
 out of a pool of 16 trial point group operations.


The static configuration has the point symmetry D_4h.


Analysis of symmetry for dynamics (positions and initial velocities):
=====================================================================
 Subroutine PRICEL returns following result:
 
  LATTYP: Found a simple tetragonal cell.
 ALAT       =     2.7500493888
 C/A-ratio  =     1.2642089792
  
  Lattice vectors:
  
 A1 = (   2.7500493888,   0.0000000000,   0.0000000000)
 A2 = (   0.0000000000,   2.7500493888,   0.0000000000)
 A3 = (   0.0000000000,   0.0000000000,   3.4766371306)
 
  27 primitive cells build up your supercell.
 

 Routine SETGRP: Setting up the symmetry group for a 
 simple tetragonal supercell.


 Subroutine GETGRP returns: Found 16 space group operations
 (whereof 16 operations were pure point group operations)
 out of a pool of 16 trial point group operations.


The dynamic configuration has the point symmetry D_4h.


Analysis of structural, dynamic, and magnetic symmetry:
=====================================================================
 Subroutine PRICEL returns:
 Original cell was already a primitive cell.
 

 Routine SETGRP: Setting up the symmetry group for a 
 simple tetragonal supercell.


 Subroutine GETGRP returns: Found  8 space group operations
 (whereof  2 operations were pure point group operations)
 out of a pool of 16 trial point group operations.


The magnetic configuration has the point symmetry C_1h.
 The point group associated with its full space group is C_4v.


 Subroutine INISYM returns: Found  8 space group operations
 (whereof  2 operations are pure point group operations),
 and found     1 'primitive' translations

 
 
 KPOINTS: automatic KPOINTS                       

Automatic generation of k-mesh.
 generate k-points for:    5    5    4
Space group operators:
 irot       det(A)        alpha          n_x          n_y          n_z        tau_x        tau_y        tau_z
    1     1.000000     0.000001     1.000000     0.000000     0.000000     0.000000     0.000000     0.000000
    2    -1.000000   180.000000     0.707107     0.707107     0.000000     0.000000     0.000000     0.000000
    3     1.000000    90.000000     0.000000     0.000000    -1.000000     0.000000     0.333333     0.000000
    4     1.000000   180.000000     0.000000     0.000000     1.000000     0.666667     0.333333     0.000000
    5     1.000000    90.000000     0.000000     0.000000     1.000000     0.666667     0.000000     0.000000
    6    -1.000000   180.000000     0.000000     1.000000     0.000000     0.000000     0.333333     0.000000
    7    -1.000000   180.000000     1.000000     0.000000     0.000000     0.666667     0.000000     0.000000
    8    -1.000000   180.000000     0.707107    -0.707107     0.000000     0.666667     0.333333     0.000000
 
 Subroutine IBZKPT returns following result:
 ===========================================
 
 Found     18 irreducible k-points:
 
 Following reciprocal coordinates:
            Coordinates               Weight
  0.000000  0.000000  0.000000      1.000000
  0.200000  0.000000  0.000000      4.000000
  0.400000  0.000000  0.000000      4.000000
  0.200000  0.200000  0.000000      4.000000
  0.400000  0.200000  0.000000      8.000000
  0.400000  0.400000  0.000000      4.000000
  0.000000  0.000000  0.250000      2.000000
  0.200000  0.000000  0.250000      8.000000
  0.400000  0.000000  0.250000      8.000000
  0.200000  0.200000  0.250000      8.000000
  0.400000  0.200000  0.250000     16.000000
  0.400000  0.400000  0.250000      8.000000
  0.000000  0.000000  0.500000      1.000000
  0.200000  0.000000  0.500000      4.000000
  0.400000  0.000000  0.500000      4.000000
  0.200000  0.200000  0.500000      4.000000
  0.400000  0.200000  0.500000      8.000000
  0.400000  0.400000  0.500000      4.000000
 
 Following cartesian coordinates:
            Coordinates               Weight
  0.000000  0.000000  0.000000      1.000000
  0.024242  0.000000  0.000000      4.000000
  0.048484  0.000000  0.000000      4.000000
  0.024242  0.024242  0.000000      4.000000
  0.048484  0.024242  0.000000      8.000000
  0.048484  0.048484  0.000000      4.000000
  0.000000  0.000000  0.023970      2.000000
  0.024242  0.000000  0.023970      8.000000
  0.048484  0.000000  0.023970      8.000000
  0.024242  0.024242  0.023970      8.000000
  0.048484  0.024242  0.023970     16.000000
  0.048484  0.048484  0.023970      8.000000
  0.000000  0.000000  0.047939      1.000000
  0.024242  0.000000  0.047939      4.000000
  0.048484  0.000000  0.047939      4.000000
  0.024242  0.024242  0.047939      4.000000
  0.048484  0.024242  0.047939      8.000000
  0.048484  0.048484  0.047939      4.000000
 


--------------------------------------------------------------------------------------------------------




 Dimension of arrays:
   k-points           NKPTS =     18   k-points in BZ     NKDIM =     18   number of bands    NBANDS=    166
   number of dos      NEDOS =    301   number of ions     NIONS =     54
   non local maximal  LDIM  =      6   non local SUM 2l+1 LMDIM =     18
   total plane-waves  NPLWV = 204120
   max r-space proj   IRMAX =      1   max aug-charges    IRDMAX=  89713
   dimension x,y,z NGX =    54 NGY =   54 NGZ =   70
   dimension x,y,z NGXF=   108 NGYF=  108 NGZF=  140
   support grid    NGXF=   216 NGYF=  216 NGZF=  280
   ions per type =              27  27
   NGX,Y,Z   is equivalent  to a cutoff of  10.88, 10.88, 11.16 a.u.
   NGXF,Y,Z  is equivalent  to a cutoff of  21.76, 21.76, 22.32 a.u.

 SYSTEM =  AlMn_pv                                 
 POSCAR =  NewRef: 27, @ ['Mn', array([1.37502469, 

 Startparameter for this run:
   NWRITE =      2    write-flag & timer
   PREC   = accura    normal or accurate (medium, high low for compatibility)
   ISTART =      0    job   : 0-new  1-cont  2-samecut
   ICHARG =      2    charge: 1-file 2-atom 10-const
   ISPIN  =      2    spin polarized calculation?
   LNONCOLLINEAR =      F non collinear calculations
   LSORBIT =      F    spin-orbit coupling
   INIWAV =      1    electr: 0-lowe 1-rand  2-diag
   LASPH  =      F    aspherical Exc in radial PAW
   METAGGA=      F    non-selfconsistent MetaGGA calc.

 Electronic Relaxation 1
   ENCUT  =  404.8 eV  29.75 Ry    5.45 a.u.  13.53 13.53 17.11*2*pi/ulx,y,z
   ENINI  =  404.8     initial cutoff
   ENAUG  =  500.7 eV  augmentation charge cutoff
   NELM   =    100;   NELMIN=  4; NELMDL= -8     # of ELM steps 
   EDIFF  = 0.1E-06   stopping-criterion for ELM
   LREAL  =      F    real-space projection
   NLSPLINE    = F    spline interpolate recip. space projectors
   LCOMPAT=      F    compatible to vasp.4.4
   GGA_COMPAT  = T    GGA compatible to vasp.4.4-vasp.4.6
   LMAXPAW     = -100 max onsite density
   LMAXMIX     =    2 max onsite mixed and CHGCAR
   VOSKOWN=      0    Vosko Wilk Nusair interpolation
   ROPT   =    0.00000   0.00000
 Ionic relaxation
   EDIFFG = 0.1E-05   stopping-criterion for IOM
   NSW    =      0    number of steps for IOM
   NBLOCK =      1;   KBLOCK =      1    inner block; outer block 
   IBRION =     -1    ionic relax: 0-MD 1-quasi-New 2-CG
   NFREE  =      0    steps in history (QN), initial steepest desc. (CG)
   ISIF   =      2    stress and relaxation
   IWAVPR =     10    prediction:  0-non 1-charg 2-wave 3-comb
   ISYM   =      2    0-nonsym 1-usesym 2-fastsym
   LCORR  =      T    Harris-Foulkes like correction to forces

   POTIM  = 0.2000    time-step for ionic-motion
   TEIN   =    0.0    initial temperature
   TEBEG  =    0.0;   TEEND  =   0.0 temperature during run
   SMASS  =  -3.00    Nose mass-parameter (am)
   estimated Nose-frequenzy (Omega)   =  0.10E-29 period in steps =****** mass=  -0.156E-26a.u.
   SCALEE = 1.0000    scale energy and forces
   NPACO  =    256;   APACO  = 16.0  distance and # of slots for P.C.
   PSTRESS=    0.0 pullay stress

  Mass of Ions in am
   POMASS =  26.98 54.94
  Ionic Valenz
   ZVAL   =   3.00  7.00
  Atomic Wigner-Seitz radii
   RWIGS  =  -1.00 -1.00
  virtual crystal weights 
   VCA    =   1.00  1.00
   NELECT =     270.0000    total number of electrons
   NUPDOWN=      -1.0000    fix difference up-down

 DOS related values:
   EMIN   =  10.00;   EMAX   =-10.00  energy-range for DOS
   EFERMI =   0.00
   ISMEAR =     1;   SIGMA  =   0.20  broadening in eV -4-tet -1-fermi 0-gaus

 Electronic relaxation 2 (details)
   IALGO  =     58    algorithm
   LDIAG  =      T    sub-space diagonalisation (order eigenvalues)
   LSUBROT=      F    optimize rotation matrix (better conditioning)
   TURBO    =      0    0=normal 1=particle mesh
   IRESTART =      0    0=no restart 2=restart with 2 vectors
   NREBOOT  =      0    no. of reboots
   NMIN     =      0    reboot dimension
   EREF     =   0.00    reference energy to select bands
   IMIX   =      4    mixing-type and parameters
     AMIX     =   0.40;   BMIX     =  1.00
     AMIX_MAG =   1.60;   BMIX_MAG =  1.00
     AMIN     =   0.10
     WC   =   100.;   INIMIX=   1;  MIXPRE=   1;  MAXMIX= -45

 Intra band minimization:
   WEIMIN = 0.0000     energy-eigenvalue tresh-hold
   EBREAK =  0.15E-09  absolut break condition
   DEPER  =   0.30     relativ break condition  

   TIME   =   0.40     timestep for ELM

  volume/ion in A,a.u.               =      13.15        88.72
  Fermi-wavevector in a.u.,A,eV,Ry     =   1.186118  2.241439 19.141722  1.406877
  Thomas-Fermi vector in A             =   2.322298
 
 Write flags
   LWAVE        =      F    write WAVECAR
   LDOWNSAMPLE  =      F    k-point downsampling of WAVECAR
   LCHARG       =      F    write CHGCAR
   LVTOT        =      F    write LOCPOT, total local potential
   LVHAR        =      F    write LOCPOT, Hartree potential only
   LELF         =      F    write electronic localiz. function (ELF)
   LORBIT       =     10    0 simple, 1 ext, 2 COOP (PROOUT), +10 PAW based schemes


 Dipole corrections
   LMONO  =      F    monopole corrections only (constant potential shift)
   LDIPOL =      F    correct potential (dipole corrections)
   IDIPOL =      0    1-x, 2-y, 3-z, 4-all directions 
   EPSILON=  1.0000000 bulk dielectric constant

 Exchange correlation treatment:
   GGA     =    --    GGA type
   LEXCH   =     8    internal setting for exchange type
   VOSKOWN=      0    Vosko Wilk Nusair interpolation
   LHFCALC =     F    Hartree Fock is set to
   LHFONE  =     F    Hartree Fock one center treatment
   AEXX    =    0.0000 exact exchange contribution

 Linear response parameters
   LEPSILON=     F    determine dielectric tensor
   LRPA    =     F    only Hartree local field effects (RPA)
   LNABLA  =     F    use nabla operator in PAW spheres
   LVEL    =     F    velocity operator in full k-point grid
   LINTERFAST=   F  fast interpolation
   KINTER  =     0    interpolate to denser k-point grid
   CSHIFT  =0.1000    complex shift for real part using Kramers Kronig
   OMEGAMAX=  -1.0    maximum frequency
   DEG_THRESHOLD= 0.2000000E-02 threshold for treating states as degnerate
   RTIME   =   -0.100 relaxation time in fs
  (WPLASMAI=    0.000 imaginary part of plasma frequency in eV, 0.658/RTIME)
   DFIELD  = 0.0000000 0.0000000 0.0000000 field for delta impulse in time
 
 Orbital magnetization related:
   ORBITALMAG=     F  switch on orbital magnetization
   LCHIMAG   =     F  perturbation theory with respect to B field
   DQ        =  0.001000  dq finite difference perturbation B field
   LLRAUG    =     F  two centre corrections for induced B field



--------------------------------------------------------------------------------------------------------


 Static calculation
 charge density and potential will be updated during run
 spin polarized calculation
 Conjugate gradient for all bands (Freysoldt, et al. PRB 79, 241103 (2009))
 preconditioned conjugated gradient                                        
 perform sub-space diagonalisation
    before iterative eigenvector-optimisation
 modified Broyden-mixing scheme, WC =      100.0
 initial mixing is a Kerker type mixing with AMIX =  0.4000 and BMIX =      1.0000
 Hartree-type preconditioning will be used
 using additional bands           31
 reciprocal scheme for non local part
 use partial core corrections
 no Harris-corrections to forces 
 use gradient corrections 
 use of overlap-Matrix (Vanderbilt PP)
 Methfessel and Paxton  Order N= 1 SIGMA  =   0.20


--------------------------------------------------------------------------------------------------------


  energy-cutoff  :      404.80
  volume of cell :      709.91
      direct lattice vectors                 reciprocal lattice vectors
     8.250148166  0.000000000  0.000000000     0.121209944  0.000000000  0.000000000
     0.000000000  8.250148166  0.000000000     0.000000000  0.121209944  0.000000000
     0.000000000  0.000000000 10.429911392     0.000000000  0.000000000  0.095878092

  length of vectors
     8.250148166  8.250148166 10.429911392     0.121209944  0.121209944  0.095878092


 
 k-points in units of 2pi/SCALE and weight: automatic KPOINTS                       
   0.00000000  0.00000000  0.00000000       0.010
   0.02424199  0.00000000  0.00000000       0.040
   0.04848398  0.00000000  0.00000000       0.040
   0.02424199  0.02424199  0.00000000       0.040
   0.04848398  0.02424199  0.00000000       0.080
   0.04848398  0.04848398  0.00000000       0.040
   0.00000000  0.00000000  0.02396952       0.020
   0.02424199  0.00000000  0.02396952       0.080
   0.04848398  0.00000000  0.02396952       0.080
   0.02424199  0.02424199  0.02396952       0.080
   0.04848398  0.02424199  0.02396952       0.160
   0.04848398  0.04848398  0.02396952       0.080
   0.00000000  0.00000000  0.04793905       0.010
   0.02424199  0.00000000  0.04793905       0.040
   0.04848398  0.00000000  0.04793905       0.040
   0.02424199  0.02424199  0.04793905       0.040
   0.04848398  0.02424199  0.04793905       0.080
   0.04848398  0.04848398  0.04793905       0.040
 
 k-points in reciprocal lattice and weights: automatic KPOINTS                       
   0.00000000  0.00000000  0.00000000       0.010
   0.20000000  0.00000000  0.00000000       0.040
   0.40000000  0.00000000  0.00000000       0.040
   0.20000000  0.20000000  0.00000000       0.040
   0.40000000  0.20000000  0.00000000       0.080
   0.40000000  0.40000000  0.00000000       0.040
   0.00000000  0.00000000  0.25000000       0.020
   0.20000000  0.00000000  0.25000000       0.080
   0.40000000  0.00000000  0.25000000       0.080
   0.20000000  0.20000000  0.25000000       0.080
   0.40000000  0.20000000  0.25000000       0.160
   0.40000000  0.40000000  0.25000000       0.080
   0.00000000  0.00000000  0.50000000       0.010
   0.20000000  0.00000000  0.50000000       0.040
   0.40000000  0.00000000  0.50000000       0.040
   0.20000000  0.20000000  0.50000000       0.040
   0.40000000  0.20000000  0.50000000       0.080
   0.40000000  0.40000000  0.50000000       0.040
 
 position of ions in fractional coordinates (direct lattice) 
   0.00000000  0.00000000  0.00000000
   0.00000000  0.00000000  0.33333333
   0.00000000  0.00000000  0.66666667
   0.00000000  0.33333333  0.00000000
   0.00000000  0.33333333  0.33333333
   0.00000000  0.33333333  0.66666667
   0.00000000  0.66666667  0.00000000
   0.00000000  0.66666667  0.33333333
   0.00000000  0.66666667  0.66666667
   0.33333333  0.00000000  0.00000000
   0.33333333  0.00000000  0.33333333
   0.33333333  0.00000000  0.66666667
   0.33333333  0.33333333  0.00000000
   0.33333333  0.33333333  0.33333333
   0.33333333  0.33333333  0.66666667
   0.33333333  0.66666667  0.00000000
   0.33333333  0.66666667  0.33333333
   0.33333333  0.66666667  0.66666667
   0.66666667  0.00000000  0.00000000
   0.66666667  0.00000000  0.33333333
   0.66666667  0.00000000  0.66666667
   0.66666667  0.33333333  0.00000000
   0.66666667  0.33333333  0.33333333
   0.66666667  0.33333333  0.66666667
   0.66666667  0.66666667  0.00000000
   0.66666667  0.66666667  0.33333333
   0.66666667  0.66666667  0.66666667
   0.16666667  0.16666667  0.16666667
   0.16666667  0.16666667  0.50000000
   0.16666667  0.16666667  0.83333333
   0.16666667  0.50000000  0.16666667
   0.16666667  0.50000000  0.50000000
   0.16666667  0.50000000  0.83333333
   0.16666667  0.83333333  0.16666667
   0.16666667  0.83333333  0.50000000
   0.16666667  0.83333333  0.83333333
   0.50000000  0.16666667  0.16666667
   0.50000000  0.16666667  0.50000000
   0.50000000  0.16666667  0.83333333
   0.50000000  0.50000000  0.16666667
   0.50000000  0.50000000  0.50000000
   0.50000000  0.50000000  0.83333333
   0.50000000  0.83333333  0.16666667
   0.50000000  0.83333333  0.50000000
   0.50000000  0.83333333  0.83333333
   0.83333333  0.16666667  0.16666667
   0.83333333  0.16666667  0.50000000
   0.83333333  0.16666667  0.83333333
   0.83333333  0.50000000  0.16666667
   0.83333333  0.50000000  0.50000000
   0.83333333  0.50000000  0.83333333
   0.83333333  0.83333333  0.16666667
   0.83333333  0.83333333  0.50000000
   0.83333333  0.83333333  0.83333333
 
 position of ions in cartesian coordinates  (Angst):
   0.00000000  0.00000000  0.00000000
   0.00000000  0.00000000  3.47663713
   0.00000000  0.00000000  6.95327426
   0.00000000  2.75004939  0.00000000
   0.00000000  2.75004939  3.47663713
   0.00000000  2.75004939  6.95327426
   0.00000000  5.50009878  0.00000000
   0.00000000  5.50009878  3.47663713
   0.00000000  5.50009878  6.95327426
   2.75004939  0.00000000  0.00000000
   2.75004939  0.00000000  3.47663713
   2.75004939  0.00000000  6.95327426
   2.75004939  2.75004939  0.00000000
   2.75004939  2.75004939  3.47663713
   2.75004939  2.75004939  6.95327426
   2.75004939  5.50009878  0.00000000
   2.75004939  5.50009878  3.47663713
   2.75004939  5.50009878  6.95327426
   5.50009878  0.00000000  0.00000000
   5.50009878  0.00000000  3.47663713
   5.50009878  0.00000000  6.95327426
   5.50009878  2.75004939  0.00000000
   5.50009878  2.75004939  3.47663713
   5.50009878  2.75004939  6.95327426
   5.50009878  5.50009878  0.00000000
   5.50009878  5.50009878  3.47663713
   5.50009878  5.50009878  6.95327426
   1.37502469  1.37502469  1.73831857
   1.37502469  1.37502469  5.21495570
   1.37502469  1.37502469  8.69159283
   1.37502469  4.12507408  1.73831857
   1.37502469  4.12507408  5.21495570
   1.37502469  4.12507408  8.69159283
   1.37502469  6.87512347  1.73831857
   1.37502469  6.87512347  5.21495570
   1.37502469  6.87512347  8.69159283
   4.12507408  1.37502469  1.73831857
   4.12507408  1.37502469  5.21495570
   4.12507408  1.37502469  8.69159283
   4.12507408  4.12507408  1.73831857
   4.12507408  4.12507408  5.21495570
   4.12507408  4.12507408  8.69159283
   4.12507408  6.87512347  1.73831857
   4.12507408  6.87512347  5.21495570
   4.12507408  6.87512347  8.69159283
   6.87512347  1.37502469  1.73831857
   6.87512347  1.37502469  5.21495570
   6.87512347  1.37502469  8.69159283
   6.87512347  4.12507408  1.73831857
   6.87512347  4.12507408  5.21495570
   6.87512347  4.12507408  8.69159283
   6.87512347  6.87512347  1.73831857
   6.87512347  6.87512347  5.21495570
   6.87512347  6.87512347  8.69159283
 


--------------------------------------------------------------------------------------------------------


 k-point  1 :   0.0000 0.0000 0.0000  plane waves:   13099
 k-point  2 :   0.2000 0.0000 0.0000  plane waves:   13101
 k-point  3 :   0.4000 0.0000 0.0000  plane waves:   13111
 k-point  4 :   0.2000 0.2000 0.0000  plane waves:   13137
 k-point  5 :   0.4000 0.2000 0.0000  plane waves:   13119
 k-point  6 :   0.4000 0.4000 0.0000  plane waves:   13129
 k-point  7 :   0.0000 0.0000 0.2500  plane waves:   13134
 k-point  8 :   0.2000 0.0000 0.2500  plane waves:   13149
 k-point  9 :   0.4000 0.0000 0.2500  plane waves:   13119
 k-point 10 :   0.2000 0.2000 0.2500  plane waves:   13145
 k-point 11 :   0.4000 0.2000 0.2500  plane waves:   13134
 k-point 12 :   0.4000 0.4000 0.2500  plane waves:   13108
 k-point 13 :   0.0000 0.0000 0.5000  plane waves:   13186
 k-point 14 :   0.2000 0.0000 0.5000  plane waves:   13124
 k-point 15 :   0.4000 0.0000 0.5000  plane waves:   13152
 k-point 16 :   0.2000 0.2000 0.5000  plane waves:   13136
 k-point 17 :   0.4000 0.2000 0.5000  plane waves:   13128
 k-point 18 :   0.4000 0.4000 0.5000  plane waves:   13112

 maximum and minimum number of plane-waves per node :      3304     3246

 maximum number of plane-waves:     13186
 maximum index in each direction: 
   IXMAX=   13   IYMAX=   13   IZMAX=   17
   IXMIN=  -13   IYMIN=  -13   IZMIN=  -17


 parallel 3D FFT for wavefunctions:
    minimum data exchange during FFTs selected (reduces bandwidth)
 parallel 3D FFT for charge:
    minimum data exchange during FFTs selected (reduces bandwidth)


 total amount of memory used by VASP MPI-rank0   602459. kBytes
=======================================================================

   base      :      30000. kBytes
   nonl-proj :      19946. kBytes
   fftplans  :      31580. kBytes
   grid      :      21385. kBytes
   one-center:        435. kBytes
   wavefun   :     499113. kBytes
 
     INWAV:  cpu time    0.0000: real time    0.0002
 Broyden mixing: mesh for mixing (old mesh)
   NGX = 27   NGY = 27   NGZ = 35
  (NGX  =108   NGY  =108   NGZ  =140)
  gives a total of  25515 points

 initial charge density was supplied:
 charge density of overlapping atoms calculated
 number of electron     270.0000000 magnetization       3.0000000
 keeping initial charge density in first step


--------------------------------------------------------------------------------------------------------


 Maximum index for augmentation-charges        10967 (set IRDMAX)


--------------------------------------------------------------------------------------------------------


 First call to EWALD:  gamma=   0.199
 Maximum number of real-space cells 3x 3x 2
 Maximum number of reciprocal cells 3x 3x 3

    FEWALD:  cpu time    0.0027: real time    0.0027


--------------------------------------- Iteration      1(   1)  ---------------------------------------


    POTLOK:  cpu time    0.3964: real time    0.3966
    SETDIJ:  cpu time    0.4573: real time    0.4578
    TRIAL :  cpu time   20.6655: real time   20.8708
    CORREC:  cpu time    0.0037: real time    0.0038
    --------------------------------------------
      LOOP:  cpu time   21.6939: real time   21.9071

 eigenvalue-minimisations  : 11952
 total energy-change (2. order) : 0.2051671E+04  (-0.8755233E+04)
 number of electron     270.0000000 magnetization       3.0000000
 augmentation part      270.0000000 magnetization       3.0000000

 Free energy of the ion-electron system (eV)
  ---------------------------------------------------
  alpha Z        PSCENC =       798.38614055
  Ewald energy   TEWEN  =    -12901.57693327
  -Hartree energ DENC   =     -2855.60785864
  -exchange      EXHF   =         0.00000000
  -V(xc)+E(xc)   XCENC  =      -996.16173865
  PAW double counting   =     12741.82587617   -11476.22345381
  entropy T*S    EENTRO =         0.00388971
  eigenvalues    EBANDS =      4043.35102192
  atomic energy  EATOM  =     12697.67401269
  ---------------------------------------------------
  free energy    TOTEN  =      2051.67095665 eV

  energy without entropy =     2051.66706694  energy(sigma->0) =     2051.66966008


--------------------------------------------------------------------------------------------------------




--------------------------------------- Iteration      1(   2)  ---------------------------------------


    TRIAL :  cpu time   21.4824: real time   21.8215
    CORREC:  cpu time    0.0046: real time    0.0047
    --------------------------------------------
      LOOP:  cpu time   21.4880: real time   21.8296

 eigenvalue-minimisations  : 11952
 total energy-change (2. order) :-0.2124414E+04  (-0.2078728E+04)
 number of electron     270.0000000 magnetization       3.0000000
 augmentation part      270.0000000 magnetization       3.0000000

 Free energy of the ion-electron system (eV)
  ---------------------------------------------------
  alpha Z        PSCENC =       798.38614055
  Ewald energy   TEWEN  =    -12901.57693327
  -Hartree energ DENC   =     -2855.60785864
  -exchange      EXHF   =         0.00000000
  -V(xc)+E(xc)   XCENC  =      -996.16173865
  PAW double counting   =     12741.82587617   -11476.22345381
  entropy T*S    EENTRO =         0.00819003
  eigenvalues    EBANDS =      1918.93270283
  atomic energy  EATOM  =     12697.67401269
  ---------------------------------------------------
  free energy    TOTEN  =       -72.74306211 eV

  energy without entropy =      -72.75125214  energy(sigma->0) =      -72.74579212


--------------------------------------------------------------------------------------------------------




--------------------------------------- Iteration      1(   3)  ---------------------------------------


    TRIAL :  cpu time   28.6140: real time   28.8439
    CORREC:  cpu time    0.0054: real time    0.0063
    --------------------------------------------
      LOOP:  cpu time   28.6203: real time   28.8537

 eigenvalue-minimisations  : 18032
 total energy-change (2. order) :-0.2768262E+03  (-0.2486410E+03)
 number of electron     270.0000000 magnetization       3.0000000
 augmentation part      270.0000000 magnetization       3.0000000

 Free energy of the ion-electron system (eV)
  ---------------------------------------------------
  alpha Z        PSCENC =       798.38614055
  Ewald energy   TEWEN  =    -12901.57693327
  -Hartree energ DENC   =     -2855.60785864
  -exchange      EXHF   =         0.00000000
  -V(xc)+E(xc)   XCENC  =      -996.16173865
  PAW double counting   =     12741.82587617   -11476.22345381
  entropy T*S    EENTRO =         0.00775907
  eigenvalues    EBANDS =      1642.10695311
  atomic energy  EATOM  =     12697.67401269
  ---------------------------------------------------
  free energy    TOTEN  =      -349.56924280 eV

  energy without entropy =     -349.57700187  energy(sigma->0) =     -349.57182916


--------------------------------------------------------------------------------------------------------




--------------------------------------- Iteration      1(   4)  ---------------------------------------


    TRIAL :  cpu time   31.0926: real time   31.4297
    CORREC:  cpu time    0.0057: real time    0.0065
    --------------------------------------------
      LOOP:  cpu time   31.0991: real time   31.4402

 eigenvalue-minimisations  : 19432
 total energy-change (2. order) :-0.4830916E+02  (-0.4273361E+02)
 number of electron     270.0000000 magnetization       3.0000000
 augmentation part      270.0000000 magnetization       3.0000000

 Free energy of the ion-electron system (eV)
  ---------------------------------------------------
  alpha Z        PSCENC =       798.38614055
  Ewald energy   TEWEN  =    -12901.57693327
  -Hartree energ DENC   =     -2855.60785864
  -exchange      EXHF   =         0.00000000
  -V(xc)+E(xc)   XCENC  =      -996.16173865
  PAW double counting   =     12741.82587617   -11476.22345381
  entropy T*S    EENTRO =         0.04875261
  eigenvalues    EBANDS =      1593.75680192
  atomic energy  EATOM  =     12697.67401269
  ---------------------------------------------------
  free energy    TOTEN  =      -397.87840044 eV

  energy without entropy =     -397.92715306  energy(sigma->0) =     -397.89465132


--------------------------------------------------------------------------------------------------------




--------------------------------------- Iteration      1(   5)  ---------------------------------------


    TRIAL :  cpu time   31.3288: real time   31.5760
    CORREC:  cpu time    0.0058: real time    0.0059
    --------------------------------------------
      LOOP:  cpu time   31.3357: real time   31.5854

 eigenvalue-minimisations  : 20088
 total energy-change (2. order) :-0.5716739E+01  (-0.5456701E+01)
 number of electron     270.0000000 magnetization       3.0000000
 augmentation part      270.0000000 magnetization       3.0000000

 Free energy of the ion-electron system (eV)
  ---------------------------------------------------
  alpha Z        PSCENC =       798.38614055
  Ewald energy   TEWEN  =    -12901.57693327
  -Hartree energ DENC   =     -2855.60785864
  -exchange      EXHF   =         0.00000000
  -V(xc)+E(xc)   XCENC  =      -996.16173865
  PAW double counting   =     12741.82587617   -11476.22345381
  entropy T*S    EENTRO =         0.06137282
  eigenvalues    EBANDS =      1588.02744227
  atomic energy  EATOM  =     12697.67401269
  ---------------------------------------------------
  free energy    TOTEN  =      -403.59513988 eV

  energy without entropy =     -403.65651270  energy(sigma->0) =     -403.61559749


--------------------------------------------------------------------------------------------------------




--------------------------------------- Iteration      1(   6)  ---------------------------------------


    TRIAL :  cpu time   31.8638: real time   32.2234
    CORREC:  cpu time    0.0058: real time    0.0067
    --------------------------------------------
      LOOP:  cpu time   31.8705: real time   32.2337

 eigenvalue-minimisations  : 19968
 total energy-change (2. order) :-0.4793115E+00  (-0.4675686E+00)
 number of electron     270.0000000 magnetization       3.0000000
 augmentation part      270.0000000 magnetization       3.0000000

 Free energy of the ion-electron system (eV)
  ---------------------------------------------------
  alpha Z        PSCENC =       798.38614055
  Ewald energy   TEWEN  =    -12901.57693327
  -Hartree energ DENC   =     -2855.60785864
  -exchange      EXHF   =         0.00000000
  -V(xc)+E(xc)   XCENC  =      -996.16173865
  PAW double counting   =     12741.82587617   -11476.22345381
  entropy T*S    EENTRO =         0.06422884
  eigenvalues    EBANDS =      1587.54527473
  atomic energy  EATOM  =     12697.67401269
  ---------------------------------------------------
  free energy    TOTEN  =      -404.07445140 eV

  energy without entropy =     -404.13868024  energy(sigma->0) =     -404.09586102


--------------------------------------------------------------------------------------------------------




--------------------------------------- Iteration      1(   7)  ---------------------------------------


    TRIAL :  cpu time   31.5613: real time   31.7642
    CORREC:  cpu time    0.0059: real time    0.0059
    --------------------------------------------
      LOOP:  cpu time   31.5680: real time   32.0229

 eigenvalue-minimisations  : 20288
 total energy-change (2. order) :-0.5131255E-01  (-0.5061322E-01)
 number of electron     270.0000000 magnetization       3.0000000
 augmentation part      270.0000000 magnetization       3.0000000

 Free energy of the ion-electron system (eV)
  ---------------------------------------------------
  alpha Z        PSCENC =       798.38614055
  Ewald energy   TEWEN  =    -12901.57693327
  -Hartree energ DENC   =     -2855.60785864
  -exchange      EXHF   =         0.00000000
  -V(xc)+E(xc)   XCENC  =      -996.16173865
  PAW double counting   =     12741.82587617   -11476.22345381
  entropy T*S    EENTRO =         0.06498199
  eigenvalues    EBANDS =      1587.49320903
  atomic energy  EATOM  =     12697.67401269
  ---------------------------------------------------
  free energy    TOTEN  =      -404.12576395 eV

  energy without entropy =     -404.19074594  energy(sigma->0) =     -404.14742462


--------------------------------------------------------------------------------------------------------




--------------------------------------- Iteration      1(   8)  ---------------------------------------


    TRIAL :  cpu time   31.2464: real time   31.6568
    CORREC:  cpu time    0.0061: real time    0.0068
    CHARGE:  cpu time    1.2200: real time    1.2202
    --------------------------------------------
      LOOP:  cpu time   32.4747: real time   32.8929

 eigenvalue-minimisations  : 19632
 total energy-change (2. order) :-0.4807010E-02  (-0.4762617E-02)
 number of electron     269.9999995 magnetization       2.6765263
 augmentation part       64.1787654 magnetization       1.5064341

 Free energy of the ion-electron system (eV)
  ---------------------------------------------------
  alpha Z        PSCENC =       798.38614055
  Ewald energy   TEWEN  =    -12901.57693327
  -Hartree energ DENC   =     -2855.60785864
  -exchange      EXHF   =         0.00000000
  -V(xc)+E(xc)   XCENC  =      -996.16173865
  PAW double counting   =     12741.82587617   -11476.22345381
  entropy T*S    EENTRO =         0.06521262
  eigenvalues    EBANDS =      1587.48817140
  atomic energy  EATOM  =     12697.67401269
  ---------------------------------------------------
  free energy    TOTEN  =      -404.13057096 eV

  energy without entropy =     -404.19578358  energy(sigma->0) =     -404.15230850


--------------------------------------------------------------------------------------------------------




--------------------------------------- Iteration      1(   9)  ---------------------------------------


    POTLOK:  cpu time    0.4000: real time    0.4001
    SETDIJ:  cpu time    0.4834: real time    0.4834
    TRIAL :  cpu time   10.5730: real time   10.6190
    CORREC:  cpu time    3.8286: real time    3.9068
    CHARGE:  cpu time    1.2171: real time    1.2175
    --------------------------------------------
      LOOP:  cpu time   16.5109: real time   16.6387

 eigenvalue-minimisations  :     0
 total energy-change (2. order) : 0.3003335E+03  (-0.2182323E+03)
 number of electron     269.9999993 magnetization       2.3113493
 augmentation part       82.6000027 magnetization       1.4887072

 Free energy of the ion-electron system (eV)
  ---------------------------------------------------
  alpha Z        PSCENC =       798.38614055
  Ewald energy   TEWEN  =    -12901.57693327
  -Hartree energ DENC   =     -1271.80270274
  -exchange      EXHF   =         0.00000000
  -V(xc)+E(xc)   XCENC  =     -1041.74709880
  PAW double counting   =     19166.97026897   -17747.35114809
  entropy T*S    EENTRO =         0.03053382
  eigenvalues    EBANDS =       195.58520066
  atomic energy  EATOM  =     12697.67401269
  ---------------------------------------------------
  free energy    TOTEN  =      -103.79704741 eV

  energy without entropy =     -103.82758123  energy(sigma->0) =     -103.80722535


--------------------------------------------------------------------------------------------------------




--------------------------------------- Iteration      1(  10)  ---------------------------------------


    POTLOK:  cpu time    0.3917: real time    0.3917
    SETDIJ:  cpu time    0.4912: real time    0.4917
    TRIAL :  cpu time   10.4991: real time   10.6141
    CORREC:  cpu time    3.8019: real time    3.9117
    CHARGE:  cpu time    1.2152: real time    1.2355
    --------------------------------------------
      LOOP:  cpu time   16.4067: real time   16.6535

 eigenvalue-minimisations  :     0
 total energy-change (2. order) :-0.2141169E+03  (-0.1205659E+02)
 number of electron     269.9999993 magnetization       2.4018748
 augmentation part       86.4687448 magnetization       1.6240798

 Free energy of the ion-electron system (eV)
  ---------------------------------------------------
  alpha Z        PSCENC =       798.38614055
  Ewald energy   TEWEN  =    -12901.57693327
  -Hartree energ DENC   =     -2111.96846396
  -exchange      EXHF   =         0.00000000
  -V(xc)+E(xc)   XCENC  =     -1012.50198043
  PAW double counting   =     20662.20307326   -19424.83478394
  entropy T*S    EENTRO =         0.02160170
  eigenvalues    EBANDS =       974.67448942
  atomic energy  EATOM  =     12697.67401269
  ---------------------------------------------------
  free energy    TOTEN  =      -317.91391185 eV

  energy without entropy =     -317.93551355  energy(sigma->0) =     -317.92111242


--------------------------------------------------------------------------------------------------------




--------------------------------------- Iteration      1(  11)  ---------------------------------------


    POTLOK:  cpu time    0.3926: real time    0.3926
    SETDIJ:  cpu time    0.4635: real time    0.4636
    TRIAL :  cpu time   11.4770: real time   11.6040
    CORREC:  cpu time    4.6795: real time    4.7305
    CHARGE:  cpu time    1.2250: real time    1.2252
    --------------------------------------------
      LOOP:  cpu time   18.2555: real time   18.4357

 eigenvalue-minimisations  :     0
 total energy-change (2. order) :-0.1150724E+02  (-0.1089666E+02)
 number of electron     269.9999992 magnetization       2.0336191
 augmentation part       88.9961480 magnetization       1.4345948

 Free energy of the ion-electron system (eV)
  ---------------------------------------------------
  alpha Z        PSCENC =       798.38614055
  Ewald energy   TEWEN  =    -12901.57693327
  -Hartree energ DENC   =     -2341.68074385
  -exchange      EXHF   =         0.00000000
  -V(xc)+E(xc)   XCENC  =     -1004.07162432
  PAW double counting   =     21555.61877297   -20356.57503332
  entropy T*S    EENTRO =         0.02097805
  eigenvalues    EBANDS =      1222.78265902
  atomic energy  EATOM  =     12697.67401269
  ---------------------------------------------------
  free energy    TOTEN  =      -329.42114783 eV

  energy without entropy =     -329.44212588  energy(sigma->0) =     -329.42814051


--------------------------------------------------------------------------------------------------------




--------------------------------------- Iteration      1(  12)  ---------------------------------------


    POTLOK:  cpu time    0.3930: real time    0.3930
    SETDIJ:  cpu time    0.4635: real time    0.4636
    TRIAL :  cpu time   10.5019: real time   10.6060
    CORREC:  cpu time    3.8747: real time    3.8927
    CHARGE:  cpu time    1.2345: real time    1.2346
    --------------------------------------------
      LOOP:  cpu time   16.4813: real time   16.6039

 eigenvalue-minimisations  :     0
 total energy-change (2. order) :-0.1094756E+02  (-0.1230889E+02)
 number of electron     269.9999993 magnetization       1.9058810
 augmentation part       86.8342787 magnetization       1.3420457

 Free energy of the ion-electron system (eV)
  ---------------------------------------------------
  alpha Z        PSCENC =       798.38614055
  Ewald energy   TEWEN  =    -12901.57693327
  -Hartree energ DENC   =     -2544.72429336
  -exchange      EXHF   =         0.00000000
  -V(xc)+E(xc)   XCENC  =      -997.06109311
  PAW double counting   =     21847.14030258   -20660.88743585
  entropy T*S    EENTRO =         0.00022614
  eigenvalues    EBANDS =      1420.65961613
  atomic energy  EATOM  =     12697.67401269
  ---------------------------------------------------
  free energy    TOTEN  =      -340.36870559 eV

  energy without entropy =     -340.36893173  energy(sigma->0) =     -340.36878097


--------------------------------------------------------------------------------------------------------




--------------------------------------- Iteration      1(  13)  ---------------------------------------


    POTLOK:  cpu time    0.3919: real time    0.3922
    SETDIJ:  cpu time    0.4955: real time    0.4955
    TRIAL :  cpu time   10.4868: real time   10.6037
    CORREC:  cpu time    3.8128: real time    3.8361
    CHARGE:  cpu time    1.2315: real time    1.2378
    --------------------------------------------
      LOOP:  cpu time   16.4247: real time   16.5716

 eigenvalue-minimisations  :     0
 total energy-change (2. order) :-0.1219169E+02  (-0.8968036E+00)
 number of electron     269.9999993 magnetization       1.9838584
 augmentation part       86.2459858 magnetization       1.3870018

 Free energy of the ion-electron system (eV)
  ---------------------------------------------------
  alpha Z        PSCENC =       798.38614055
  Ewald energy   TEWEN  =    -12901.57693327
  -Hartree energ DENC   =     -2521.96835876
  -exchange      EXHF   =         0.00000000
  -V(xc)+E(xc)   XCENC  =      -998.82718823
  PAW double counting   =     21262.55352811   -20025.23839537
  entropy T*S    EENTRO =        -0.00110390
  eigenvalues    EBANDS =      1336.43656953
  atomic energy  EATOM  =     12697.67401269
  ---------------------------------------------------
  free energy    TOTEN  =      -352.56039862 eV

  energy without entropy =     -352.55929472  energy(sigma->0) =     -352.56003065


--------------------------------------------------------------------------------------------------------




--------------------------------------- Iteration      1(  14)  ---------------------------------------


    POTLOK:  cpu time    0.3918: real time    0.3918
    SETDIJ:  cpu time    0.4892: real time    0.4893
    TRIAL :  cpu time   10.4745: real time   10.6247
    CORREC:  cpu time    4.7670: real time    4.8607
    CHARGE:  cpu time    1.2289: real time    1.2387
    --------------------------------------------
      LOOP:  cpu time   17.3566: real time   17.6104

 eigenvalue-minimisations  :     0
 total energy-change (2. order) :-0.8857070E+00  (-0.1133700E+01)
 number of electron     269.9999993 magnetization       1.8501536
 augmentation part       85.9163870 magnetization       1.2957237

 Free energy of the ion-electron system (eV)
  ---------------------------------------------------
  alpha Z        PSCENC =       798.38614055
  Ewald energy   TEWEN  =    -12901.57693327
  -Hartree energ DENC   =     -2490.33550949
  -exchange      EXHF   =         0.00000000
  -V(xc)+E(xc)   XCENC  =     -1000.02699285
  PAW double counting   =     20916.52025090   -19669.53021153
  entropy T*S    EENTRO =         0.00013588
  eigenvalues    EBANDS =      1295.44424124
  atomic energy  EATOM  =     12697.67401269
  ---------------------------------------------------
  free energy    TOTEN  =      -353.44610567 eV

  energy without entropy =     -353.44624155  energy(sigma->0) =     -353.44615096


--------------------------------------------------------------------------------------------------------




--------------------------------------- Iteration      1(  15)  ---------------------------------------


    POTLOK:  cpu time    0.3935: real time    0.3936
    SETDIJ:  cpu time    0.4652: real time    0.4661
    TRIAL :  cpu time   10.4815: real time   10.5665
    CORREC:  cpu time    3.8446: real time    3.9224
    CHARGE:  cpu time    1.2324: real time    1.2355
    --------------------------------------------
      LOOP:  cpu time   16.4516: real time   16.6209

 eigenvalue-minimisations  :     0
 total energy-change (2. order) :-0.1129560E+01  (-0.7317673E+00)
 number of electron     269.9999992 magnetization       1.8423031
 augmentation part       86.5871799 magnetization       1.2474459

 Free energy of the ion-electron system (eV)
  ---------------------------------------------------
  alpha Z        PSCENC =       798.38614055
  Ewald energy   TEWEN  =    -12901.57693327
  -Hartree energ DENC   =     -2461.24226148
  -exchange      EXHF   =         0.00000000
  -V(xc)+E(xc)   XCENC  =     -1001.08975874
  PAW double counting   =     20178.20955585   -18922.34326489
  entropy T*S    EENTRO =         0.00246431
  eigenvalues    EBANDS =      1257.40670803
  atomic energy  EATOM  =     12697.67401269
  ---------------------------------------------------
  free energy    TOTEN  =      -354.57566538 eV

  energy without entropy =     -354.57812970  energy(sigma->0) =     -354.57648682


--------------------------------------------------------------------------------------------------------




--------------------------------------- Iteration      1(  16)  ---------------------------------------


    POTLOK:  cpu time    0.3930: real time    0.3931
    SETDIJ:  cpu time    0.4573: real time    0.4575
    TRIAL :  cpu time   10.5883: real time   10.6219
    CORREC:  cpu time    3.8180: real time    3.8351
    CHARGE:  cpu time    1.2231: real time    1.2658
    --------------------------------------------
      LOOP:  cpu time   16.4859: real time   16.5796

 eigenvalue-minimisations  :     0
 total energy-change (2. order) :-0.7313119E+00  (-0.2669275E+00)
 number of electron     269.9999992 magnetization       1.8567106
 augmentation part       87.1568616 magnetization       1.2551057

 Free energy of the ion-electron system (eV)
  ---------------------------------------------------
  alpha Z        PSCENC =       798.38614055
  Ewald energy   TEWEN  =    -12901.57693327
  -Hartree energ DENC   =     -2484.92364226
  -exchange      EXHF   =         0.00000000
  -V(xc)+E(xc)   XCENC  =     -1000.16596408
  PAW double counting   =     19745.36519798   -18493.74259802
  entropy T*S    EENTRO =         0.00365504
  eigenvalues    EBANDS =      1283.67434480
  atomic energy  EATOM  =     12697.67401269
  ---------------------------------------------------
  free energy    TOTEN  =      -355.30697730 eV

  energy without entropy =     -355.31063234  energy(sigma->0) =     -355.30819565


--------------------------------------------------------------------------------------------------------




--------------------------------------- Iteration      1(  17)  ---------------------------------------


    POTLOK:  cpu time    0.3929: real time    0.3933
    SETDIJ:  cpu time    0.4575: real time    0.4588
    TRIAL :  cpu time   10.4873: real time   10.5779
    CORREC:  cpu time    3.8502: real time    3.8691
    CHARGE:  cpu time    1.2583: real time    1.2957
    --------------------------------------------
      LOOP:  cpu time   16.4636: real time   16.6133

 eigenvalue-minimisations  :     0
 total energy-change (2. order) :-0.2672236E+00  (-0.2549935E+00)
 number of electron     269.9999992 magnetization       1.7189532
 augmentation part       87.2779101 magnetization       1.2093376

 Free energy of the ion-electron system (eV)
  ---------------------------------------------------
  alpha Z        PSCENC =       798.38614055
  Ewald energy   TEWEN  =    -12901.57693327
  -Hartree energ DENC   =     -2510.18791228
  -exchange      EXHF   =         0.00000000
  -V(xc)+E(xc)   XCENC  =      -999.12117577
  PAW double counting   =     19625.96779821   -18379.83904640
  entropy T*S    EENTRO =         0.00377015
  eigenvalues    EBANDS =      1313.11926034
  atomic energy  EATOM  =     12697.67401269
  ---------------------------------------------------
  free energy    TOTEN  =      -355.57420089 eV

  energy without entropy =     -355.57797104  energy(sigma->0) =     -355.57545761


--------------------------------------------------------------------------------------------------------




--------------------------------------- Iteration      1(  18)  ---------------------------------------


    POTLOK:  cpu time    0.3932: real time    0.3932
    SETDIJ:  cpu time    0.4602: real time    0.4604
    TRIAL :  cpu time   11.4338: real time   11.5870
    CORREC:  cpu time    4.2771: real time    4.3129
    CHARGE:  cpu time    1.1993: real time    1.2202
    --------------------------------------------
      LOOP:  cpu time   17.7654: real time   17.9770

 eigenvalue-minimisations  :     0
 total energy-change (2. order) :-0.2549949E+00  (-0.1502266E+00)
 number of electron     269.9999992 magnetization       1.7644132
 augmentation part       87.0858300 magnetization       1.2207465

 Free energy of the ion-electron system (eV)
  ---------------------------------------------------
  alpha Z        PSCENC =       798.38614055
  Ewald energy   TEWEN  =    -12901.57693327
  -Hartree energ DENC   =     -2513.06473743
  -exchange      EXHF   =         0.00000000
  -V(xc)+E(xc)   XCENC  =      -998.72357837
  PAW double counting   =     19531.15677028   -18286.12585463
  entropy T*S    EENTRO =         0.00499092
  eigenvalues    EBANDS =      1316.44121430
  atomic energy  EATOM  =     12697.67401269
  ---------------------------------------------------
  free energy    TOTEN  =      -355.82919575 eV

  energy without entropy =     -355.83418667  energy(sigma->0) =     -355.83085939


--------------------------------------------------------------------------------------------------------




--------------------------------------- Iteration      1(  19)  ---------------------------------------


    POTLOK:  cpu time    0.3920: real time    0.3920
    SETDIJ:  cpu time    0.4622: real time    0.4622
    TRIAL :  cpu time   10.4786: real time   10.5643
    CORREC:  cpu time    3.8314: real time    3.8602
    CHARGE:  cpu time    1.2639: real time    1.2669
    --------------------------------------------
      LOOP:  cpu time   16.4440: real time   16.5625

 eigenvalue-minimisations  :     0
 total energy-change (2. order) :-0.1494530E+00  (-0.5398888E-01)
 number of electron     269.9999992 magnetization       1.7610917
 augmentation part       86.9235529 magnetization       1.2135125

 Free energy of the ion-electron system (eV)
  ---------------------------------------------------
  alpha Z        PSCENC =       798.38614055
  Ewald energy   TEWEN  =    -12901.57693327
  -Hartree energ DENC   =     -2501.69861867
  -exchange      EXHF   =         0.00000000
  -V(xc)+E(xc)   XCENC  =      -998.92494130
  PAW double counting   =     19479.35528269   -18232.25259913
  entropy T*S    EENTRO =         0.00483485
  eigenvalues    EBANDS =      1303.05401673
  atomic energy  EATOM  =     12697.67401269
  ---------------------------------------------------
  free energy    TOTEN  =      -355.97864879 eV

  energy without entropy =     -355.98348364  energy(sigma->0) =     -355.98026041


--------------------------------------------------------------------------------------------------------




--------------------------------------- Iteration      1(  20)  ---------------------------------------


    POTLOK:  cpu time    0.3907: real time    0.3910
    SETDIJ:  cpu time    0.4604: real time    0.4613
    TRIAL :  cpu time   10.5095: real time   10.5949
    CORREC:  cpu time    3.8042: real time    3.8647
    CHARGE:  cpu time    1.2370: real time    1.2376
    --------------------------------------------
      LOOP:  cpu time   16.4081: real time   16.5580

 eigenvalue-minimisations  :     0
 total energy-change (2. order) :-0.5384401E-01  (-0.8964290E-01)
 number of electron     269.9999992 magnetization       1.6928541
 augmentation part       86.7718729 magnetization       1.1896948

 Free energy of the ion-electron system (eV)
  ---------------------------------------------------
  alpha Z        PSCENC =       798.38614055
  Ewald energy   TEWEN  =    -12901.57693327
  -Hartree energ DENC   =     -2494.03382277
  -exchange      EXHF   =         0.00000000
  -V(xc)+E(xc)   XCENC  =      -999.12110166
  PAW double counting   =     19462.82809354   -18214.10550040
  entropy T*S    EENTRO =         0.00429043
  eigenvalues    EBANDS =      1293.91178367
  atomic energy  EATOM  =     12697.67401269
  ---------------------------------------------------
  free energy    TOTEN  =      -356.03249281 eV

  energy without entropy =     -356.03678323  energy(sigma->0) =     -356.03392295


--------------------------------------------------------------------------------------------------------




--------------------------------------- Iteration      1(  21)  ---------------------------------------


    POTLOK:  cpu time    0.3932: real time    0.3932
    SETDIJ:  cpu time    0.5248: real time    0.5248
    TRIAL :  cpu time   10.4612: real time   10.6223
    CORREC:  cpu time    3.8258: real time    3.8771
    CHARGE:  cpu time    2.1927: real time    2.2188
    --------------------------------------------
      LOOP:  cpu time   17.4054: real time   17.6442

 eigenvalue-minimisations  :     0
 total energy-change (2. order) :-0.8965200E-01  (-0.5071055E-01)
 number of electron     269.9999992 magnetization       1.7163290
 augmentation part       86.8990008 magnetization       1.1919248

 Free energy of the ion-electron system (eV)
  ---------------------------------------------------
  alpha Z        PSCENC =       798.38614055
  Ewald energy   TEWEN  =    -12901.57693327
  -Hartree energ DENC   =     -2489.72850473
  -exchange      EXHF   =         0.00000000
  -V(xc)+E(xc)   XCENC  =      -999.14389613
  PAW double counting   =     19460.73042319   -18210.94859094
  entropy T*S    EENTRO =         0.00441652
  eigenvalues    EBANDS =      1288.48091340
  atomic energy  EATOM  =     12697.67401269
  ---------------------------------------------------
  free energy    TOTEN  =      -356.12214481 eV

  energy without entropy =     -356.12656133  energy(sigma->0) =     -356.12361698


--------------------------------------------------------------------------------------------------------




--------------------------------------- Iteration      1(  22)  ---------------------------------------


    POTLOK:  cpu time    0.3929: real time    0.3929
    SETDIJ:  cpu time    0.5106: real time    0.5106
    TRIAL :  cpu time   10.5236: real time   10.6053
    CORREC:  cpu time    3.8756: real time    3.9530
    CHARGE:  cpu time    1.2394: real time    1.2396
    --------------------------------------------
      LOOP:  cpu time   16.5534: real time   16.7128

 eigenvalue-minimisations  :     0
 total energy-change (2. order) :-0.5076309E-01  (-0.2014843E-01)
 number of electron     269.9999992 magnetization       1.6774945
 augmentation part       86.9824623 magnetization       1.1726788

 Free energy of the ion-electron system (eV)
  ---------------------------------------------------
  alpha Z        PSCENC =       798.38614055
  Ewald energy   TEWEN  =    -12901.57693327
  -Hartree energ DENC   =     -2498.90689514
  -exchange      EXHF   =         0.00000000
  -V(xc)+E(xc)   XCENC  =      -998.73772175
  PAW double counting   =     19483.02263492   -18235.06326138
  entropy T*S    EENTRO =         0.00409327
  eigenvalues    EBANDS =      1299.02469895
  atomic energy  EATOM  =     12697.67401269
  ---------------------------------------------------
  free energy    TOTEN  =      -356.17290789 eV

  energy without entropy =     -356.17700117  energy(sigma->0) =     -356.17427232


--------------------------------------------------------------------------------------------------------




--------------------------------------- Iteration      1(  23)  ---------------------------------------


    POTLOK:  cpu time    0.3927: real time    0.3927
    SETDIJ:  cpu time    0.4550: real time    0.4593
    TRIAL :  cpu time   10.5684: real time   10.6043
    CORREC:  cpu time    3.8595: real time    3.8667
    CHARGE:  cpu time    1.2164: real time    1.2191
    --------------------------------------------
      LOOP:  cpu time   16.5021: real time   16.5532

 eigenvalue-minimisations  :     0
 total energy-change (2. order) :-0.2016458E-01  (-0.1795825E-01)
 number of electron     269.9999992 magnetization       1.6823286
 augmentation part       86.9617689 magnetization       1.1645500

 Free energy of the ion-electron system (eV)
  ---------------------------------------------------
  alpha Z        PSCENC =       798.38614055
  Ewald energy   TEWEN  =    -12901.57693327
  -Hartree energ DENC   =     -2504.14367086
  -exchange      EXHF   =         0.00000000
  -V(xc)+E(xc)   XCENC  =      -998.51606466
  PAW double counting   =     19493.79919597   -18246.88615144
  entropy T*S    EENTRO =         0.00439383
  eigenvalues    EBANDS =      1305.06630527
  atomic energy  EATOM  =     12697.67401269
  ---------------------------------------------------
  free energy    TOTEN  =      -356.19307248 eV

  energy without entropy =     -356.19746631  energy(sigma->0) =     -356.19453709


--------------------------------------------------------------------------------------------------------




--------------------------------------- Iteration      1(  24)  ---------------------------------------


    POTLOK:  cpu time    0.3894: real time    0.3955
    SETDIJ:  cpu time    0.4187: real time    0.5179
    TRIAL :  cpu time   10.5149: real time   10.5962
    CORREC:  cpu time    3.8770: real time    3.9107
    CHARGE:  cpu time    1.2264: real time    1.2265
    --------------------------------------------
      LOOP:  cpu time   16.4352: real time   16.6582

 eigenvalue-minimisations  :     0
 total energy-change (2. order) :-0.1795441E-01  (-0.1810126E-01)
 number of electron     269.9999992 magnetization       1.6743472
 augmentation part       86.9137027 magnetization       1.1507011

 Free energy of the ion-electron system (eV)
  ---------------------------------------------------
  alpha Z        PSCENC =       798.38614055
  Ewald energy   TEWEN  =    -12901.57693327
  -Hartree energ DENC   =     -2503.20710612
  -exchange      EXHF   =         0.00000000
  -V(xc)+E(xc)   XCENC  =      -998.49706889
  PAW double counting   =     19490.41210912   -18243.24045550
  entropy T*S    EENTRO =         0.00423927
  eigenvalues    EBANDS =      1303.83388071
  atomic energy  EATOM  =     12697.67401269
  ---------------------------------------------------
  free energy    TOTEN  =      -356.21102689 eV

  energy without entropy =     -356.21526616  energy(sigma->0) =     -356.21243998


--------------------------------------------------------------------------------------------------------




--------------------------------------- Iteration      1(  25)  ---------------------------------------


    POTLOK:  cpu time    0.3934: real time    0.3934
    SETDIJ:  cpu time    0.4082: real time    0.5106
    TRIAL :  cpu time   11.4701: real time   11.6001
    CORREC:  cpu time    3.8521: real time    3.9037
    CHARGE:  cpu time    1.8924: real time    1.8927
    --------------------------------------------
      LOOP:  cpu time   18.0230: real time   18.3116

 eigenvalue-minimisations  :     0
 total energy-change (2. order) :-0.1811604E-01  (-0.1654823E-01)
 number of electron     269.9999992 magnetization       1.6471930
 augmentation part       86.9066976 magnetization       1.1394215

 Free energy of the ion-electron system (eV)
  ---------------------------------------------------
  alpha Z        PSCENC =       798.38614055
  Ewald energy   TEWEN  =    -12901.57693327
[...]
   45       -0.018  -0.018  -2.368  -2.404
   46        0.003  -0.002   2.292   2.293
   47        0.015   0.026   2.334   2.374
   48       -0.017  -0.011  -2.290  -2.318
   49        0.025   0.024   2.271   2.319
   50        0.019   0.016   2.386   2.421
   51       -0.014  -0.021  -2.260  -2.294
   52        0.025   0.024   2.273   2.322
   53        0.019   0.017   2.392   2.427
   54       -0.014  -0.022  -2.269  -2.305
--------------------------------------------------
tot         -0.002  -0.013   1.632   1.617
 
    FORLOC:  cpu time    0.0589: real time    0.0589
    FORNL :  cpu time   17.8555: real time   18.0644
    STRESS:  cpu time   25.6004: real time   25.7625
    FORCOR:  cpu time    0.4418: real time    0.4419
    OFIELD:  cpu time    0.0020: real time    0.0020

  FORCE on cell =-STRESS in cart. coord.  units (eV):
  Direction    XX          YY          ZZ          XY          YZ          ZX
  --------------------------------------------------------------------------------------
  Alpha Z   798.38614   798.38614   798.38614
  Ewald   -4053.61603 -4053.61603 -4794.40593    -0.00000    -0.00000    -0.00000
  Hartree  1084.03968  1084.03968   333.33363    -0.00000    -0.00000    -0.00000
  E(xc)   -1141.35536 -1141.35536 -1139.62298    -0.00000     0.00000    -0.00000
  Local     369.14802   369.14802  1904.30630     0.00000     0.00000    -0.00000
  n-local  -172.31516  -169.27946  -176.59492     0.27366    -0.14290    -0.35463
  augment   784.35092   784.35092   767.66308     0.00000     0.00001     0.00001
  Kinetic  2328.35394  2342.79101  2309.38050    -2.24596    -1.60285    -1.20724
  Fock        0.00000     0.00000     0.00000     0.00000     0.00000     0.00000
  -------------------------------------------------------------------------------------
  Total       5.72855     5.72855     2.44582     0.00000    -0.00000     0.00000
  in kB      12.92858    12.92858     5.51990     0.00000    -0.00000     0.00000
  external pressure =       10.46 kB  Pullay stress =        0.00 kB


 VOLUME and BASIS-vectors are now :
 -----------------------------------------------------------------------------
  energy-cutoff  :      404.80
  volume of cell :      709.91
      direct lattice vectors                 reciprocal lattice vectors
     8.250148166  0.000000000  0.000000000     0.121209944  0.000000000  0.000000000
     0.000000000  8.250148166  0.000000000     0.000000000  0.121209944  0.000000000
     0.000000000  0.000000000 10.429911392     0.000000000  0.000000000  0.095878092

  length of vectors
     8.250148166  8.250148166 10.429911392     0.121209944  0.121209944  0.095878092


 FORCES acting on ions:
    Electron-Ion                     Ewald-Force                    Non-Local-Force
 -----------------------------------------------------------------------------------------------
   -.110E+00 0.110E+00 -.129E+00   -.239E-08 -.239E-08 -.210E-08   0.475E-01 -.475E-01 0.646E-01
   -.516E-01 0.516E-01 0.104E+00   -.239E-08 -.239E-08 0.171E-08   -.392E-01 0.392E-01 -.616E-01
   -.193E-01 0.193E-01 0.685E-01   -.239E-08 -.239E-08 0.861E-08   0.720E-02 -.720E-02 -.336E-01
   -.110E+00 -.110E+00 -.129E+00   -.239E-08 -.802E-09 -.210E-08   0.475E-01 0.475E-01 0.646E-01
   -.516E-01 -.516E-01 0.104E+00   -.239E-08 -.802E-09 0.171E-08   -.392E-01 -.392E-01 -.616E-01
   -.193E-01 -.193E-01 0.685E-01   -.239E-08 -.802E-09 0.861E-08   0.720E-02 0.720E-02 -.336E-01
   -.565E-01 -.328E-08 -.876E-01   -.239E-08 0.631E-08 -.210E-08   0.975E-01 -.542E-19 0.159E-01
   0.508E-01 -.328E-08 0.262E-01   -.239E-08 0.631E-08 0.171E-08   -.104E+00 -.434E-18 0.165E-01
   0.151E-02 -.329E-08 0.210E-01   -.239E-08 0.631E-08 0.861E-08   0.243E-02 0.136E-18 0.295E-02
   0.372E-09 0.565E-01 -.876E-01   -.802E-09 -.239E-08 -.210E-08   0.000E+00 -.975E-01 0.159E-01
   0.372E-09 -.508E-01 0.262E-01   -.802E-09 -.239E-08 0.171E-08   0.434E-18 0.104E+00 0.165E-01
   0.373E-09 -.151E-02 0.210E-01   -.803E-09 -.239E-08 0.861E-08   -.161E-18 -.243E-02 0.295E-02
   0.372E-09 -.565E-01 -.876E-01   -.802E-09 -.802E-09 -.210E-08   0.542E-19 0.975E-01 0.159E-01
   0.372E-09 0.508E-01 0.262E-01   -.802E-09 -.802E-09 0.171E-08   0.000E+00 -.104E+00 0.165E-01
   0.373E-09 0.151E-02 0.210E-01   -.803E-09 -.802E-09 0.861E-08   0.000E+00 0.243E-02 0.295E-02
   0.372E-09 -.327E-08 -.793E-01   -.802E-09 0.631E-08 -.210E-08   0.000E+00 0.000E+00 0.107E+00
   0.372E-09 -.329E-08 -.123E-02   -.802E-09 0.631E-08 0.171E-08   0.000E+00 0.000E+00 -.146E-01
   0.373E-09 -.329E-08 -.208E+00   -.803E-09 0.631E-08 0.861E-08   -.108E-18 0.217E-18 0.107E+00
   0.110E+00 0.110E+00 -.129E+00   0.631E-08 -.239E-08 -.210E-08   -.475E-01 -.475E-01 0.646E-01
   0.516E-01 0.516E-01 0.104E+00   0.631E-08 -.239E-08 0.171E-08   0.392E-01 0.392E-01 -.616E-01
   0.193E-01 0.193E-01 0.685E-01   0.631E-08 -.239E-08 0.861E-08   -.720E-02 -.720E-02 -.336E-01
   0.110E+00 -.110E+00 -.129E+00   0.631E-08 -.802E-09 -.210E-08   -.475E-01 0.475E-01 0.646E-01
   0.516E-01 -.516E-01 0.104E+00   0.631E-08 -.802E-09 0.171E-08   0.392E-01 -.392E-01 -.616E-01
   0.193E-01 -.193E-01 0.685E-01   0.631E-08 -.802E-09 0.861E-08   -.720E-02 0.720E-02 -.336E-01
   0.565E-01 -.328E-08 -.876E-01   0.631E-08 0.631E-08 -.210E-08   -.975E-01 0.000E+00 0.159E-01
   -.508E-01 -.328E-08 0.262E-01   0.631E-08 0.631E-08 0.171E-08   0.104E+00 0.000E+00 0.165E-01
   -.151E-02 -.329E-08 0.210E-01   0.631E-08 0.631E-08 0.861E-08   -.243E-02 0.000E+00 0.295E-02
   -.170E+00 0.474E-08 0.182E+00   -.169E-07 -.169E-07 -.180E-07   0.142E+00 0.000E+00 -.184E+00
   -.159E-02 0.483E-08 -.820E-01   -.169E-07 -.169E-07 -.170E-08   -.351E-01 -.434E-18 0.151E+00
   0.244E-02 0.484E-08 -.214E+00   -.169E-07 -.169E-07 0.115E-07   0.575E-01 0.217E-18 0.248E+00
   0.463E+00 0.463E+00 -.181E+00   -.169E-07 0.802E-09 -.180E-07   -.218E+00 -.218E+00 0.198E+00
   0.662E-01 0.662E-01 0.132E+00   -.169E-07 0.802E-09 -.170E-08   -.204E-01 -.204E-01 -.105E+00
   -.141E-01 -.141E-01 0.151E+00   -.169E-07 0.802E-09 0.115E-07   -.110E-01 -.110E-01 -.266E+00
   0.463E+00 -.463E+00 -.181E+00   -.169E-07 0.130E-07 -.180E-07   -.218E+00 0.218E+00 0.198E+00
   0.662E-01 -.662E-01 0.132E+00   -.169E-07 0.130E-07 -.170E-08   -.204E-01 0.204E-01 -.105E+00
   -.141E-01 0.141E-01 0.151E+00   -.169E-07 0.130E-07 0.115E-07   -.110E-01 0.110E-01 -.266E+00
   0.170E+00 0.474E-08 0.182E+00   0.802E-09 -.169E-07 -.180E-07   -.142E+00 0.000E+00 -.184E+00
   0.159E-02 0.484E-08 -.820E-01   0.802E-09 -.169E-07 -.170E-08   0.351E-01 -.542E-19 0.151E+00
   -.244E-02 0.484E-08 -.214E+00   0.802E-09 -.169E-07 0.115E-07   -.575E-01 0.000E+00 0.248E+00
   -.463E+00 0.463E+00 -.181E+00   0.802E-09 0.802E-09 -.180E-07   0.218E+00 -.218E+00 0.198E+00
   -.662E-01 0.662E-01 0.132E+00   0.802E-09 0.802E-09 -.170E-08   0.204E-01 -.204E-01 -.105E+00
   0.141E-01 -.141E-01 0.151E+00   0.802E-09 0.802E-09 0.115E-07   0.110E-01 -.110E-01 -.266E+00
   -.463E+00 -.463E+00 -.181E+00   0.802E-09 0.130E-07 -.180E-07   0.218E+00 0.218E+00 0.198E+00
   -.662E-01 -.662E-01 0.132E+00   0.802E-09 0.130E-07 -.170E-08   0.204E-01 0.204E-01 -.105E+00
   0.141E-01 0.141E-01 0.151E+00   0.802E-09 0.130E-07 0.115E-07   0.110E-01 0.110E-01 -.266E+00
   -.604E-08 0.486E-08 0.260E-01   0.130E-07 -.169E-07 -.180E-07   -.434E-18 0.000E+00 -.112E+00
   -.605E-08 0.482E-08 0.606E-01   0.130E-07 -.169E-07 -.170E-08   0.000E+00 0.217E-18 -.257E-02
   -.605E-08 0.483E-08 0.417E-01   0.130E-07 -.169E-07 0.115E-07   0.000E+00 0.000E+00 -.515E-01
   -.605E-08 -.170E+00 0.182E+00   0.130E-07 0.802E-09 -.180E-07   0.000E+00 0.142E+00 -.184E+00
   -.605E-08 -.159E-02 -.820E-01   0.130E-07 0.802E-09 -.170E-08   0.000E+00 -.351E-01 0.151E+00
   -.605E-08 0.244E-02 -.214E+00   0.130E-07 0.802E-09 0.115E-07   0.000E+00 0.575E-01 0.248E+00
   -.605E-08 0.170E+00 0.182E+00   0.130E-07 0.130E-07 -.180E-07   -.217E-18 -.142E+00 -.184E+00
   -.605E-08 0.159E-02 -.820E-01   0.130E-07 0.130E-07 -.170E-08   -.434E-18 0.351E-01 0.151E+00
   -.605E-08 -.244E-02 -.214E+00   0.130E-07 0.130E-07 0.115E-07   0.000E+00 -.575E-01 0.248E+00
 -----------------------------------------------------------------------------------------------
   -.360E-07 -.407E-07 -.218E+00   -.614E-13 -.142E-13 0.128E-13   -.802E-17 0.111E-15 0.218E+00
 
 
 POSITION                                       TOTAL-FORCE (eV/Angst)
 -----------------------------------------------------------------------------------
      0.00000      0.00000      0.00000        -0.066849      0.066849     -0.068593
      0.00000      0.00000      3.47664        -0.087304      0.087304      0.046467
      0.00000      0.00000      6.95327        -0.012817      0.012817      0.038231
      0.00000      2.75005      0.00000        -0.066849     -0.066849     -0.068593
      0.00000      2.75005      3.47664        -0.087304     -0.087304      0.046467
      0.00000      2.75005      6.95327        -0.012817     -0.012817      0.038231
      0.00000      5.50010      0.00000         0.032728     -0.000000     -0.071549
      0.00000      5.50010      3.47664        -0.044402     -0.000000      0.039585
      0.00000      5.50010      6.95327         0.003689     -0.000000      0.024173
      2.75005      0.00000      0.00000        -0.000000     -0.032728     -0.071549
      2.75005      0.00000      3.47664        -0.000000      0.044402      0.039585
      2.75005      0.00000      6.95327        -0.000000     -0.003689      0.024173
      2.75005      2.75005      0.00000        -0.000000      0.032728     -0.071549
      2.75005      2.75005      3.47664        -0.000000     -0.044402      0.039585
      2.75005      2.75005      6.95327        -0.000000      0.003689      0.024173
      2.75005      5.50010      0.00000        -0.000000     -0.000000      0.018647
      2.75005      5.50010      3.47664        -0.000000     -0.000000     -0.015909
      2.75005      5.50010      6.95327        -0.000000     -0.000000     -0.111783
      5.50010      0.00000      0.00000         0.066849      0.066849     -0.068593
      5.50010      0.00000      3.47664         0.087304      0.087304      0.046467
      5.50010      0.00000      6.95327         0.012817      0.012817      0.038231
      5.50010      2.75005      0.00000         0.066849     -0.066849     -0.068593
      5.50010      2.75005      3.47664         0.087304     -0.087304      0.046467
      5.50010      2.75005      6.95327         0.012817     -0.012817      0.038231
      5.50010      5.50010      0.00000        -0.032728     -0.000000     -0.071549
      5.50010      5.50010      3.47664         0.044402     -0.000000      0.039585
      5.50010      5.50010      6.95327        -0.003689     -0.000000      0.024173
      1.37502      1.37502      1.73832        -0.032913     -0.000000      0.002967
      1.37502      1.37502      5.21496        -0.036484     -0.000000      0.061851
      1.37502      1.37502      8.69159         0.060103     -0.000000      0.030247
      1.37502      4.12507      1.73832         0.253209      0.253209      0.011560
      1.37502      4.12507      5.21496         0.045379      0.045379      0.025872
      1.37502      4.12507      8.69159        -0.022580     -0.022580     -0.105429
      1.37502      6.87512      1.73832         0.253209     -0.253209      0.011560
      1.37502      6.87512      5.21496         0.045379     -0.045379      0.025872
      1.37502      6.87512      8.69159        -0.022580      0.022580     -0.105429
      4.12507      1.37502      1.73832         0.032913     -0.000000      0.002967
      4.12507      1.37502      5.21496         0.036484     -0.000000      0.061851
      4.12507      1.37502      8.69159        -0.060103     -0.000000      0.030247
      4.12507      4.12507      1.73832        -0.253209      0.253209      0.011560
      4.12507      4.12507      5.21496        -0.045379      0.045379      0.025872
      4.12507      4.12507      8.69159         0.022580     -0.022580     -0.105429
      4.12507      6.87512      1.73832        -0.253209     -0.253209      0.011560
      4.12507      6.87512      5.21496        -0.045379     -0.045379      0.025872
      4.12507      6.87512      8.69159         0.022580      0.022580     -0.105429
      6.87512      1.37502      1.73832        -0.000000     -0.000000     -0.078315
      6.87512      1.37502      5.21496        -0.000000     -0.000000      0.051324
      6.87512      1.37502      8.69159        -0.000000     -0.000000     -0.005491
      6.87512      4.12507      1.73832        -0.000000     -0.032913      0.002967
      6.87512      4.12507      5.21496        -0.000000     -0.036484      0.061851
      6.87512      4.12507      8.69159        -0.000000      0.060103      0.030247
      6.87512      6.87512      1.73832        -0.000000      0.032913      0.002967
      6.87512      6.87512      5.21496        -0.000000      0.036484      0.061851
      6.87512      6.87512      8.69159        -0.000000     -0.060103      0.030247
 -----------------------------------------------------------------------------------
    total drift:                               -0.000000     -0.000000     -0.000020


--------------------------------------------------------------------------------------------------------



  FREE ENERGIE OF THE ION-ELECTRON SYSTEM (eV)
  ---------------------------------------------------
  free  energy   TOTEN  =      -356.28171248 eV

  energy  without entropy=     -356.28708735  energy(sigma->0) =     -356.28350411
 


--------------------------------------------------------------------------------------------------------


    POTLOK:  cpu time    0.9978: real time    0.9978


--------------------------------------------------------------------------------------------------------


     LOOP+:  cpu time 1251.8640: real time 1265.0485
    4ORBIT:  cpu time    0.0000: real time    0.0000
 


 total charge     
 
# of ion       s       p       d       tot
------------------------------------------
    1        0.405   0.428   0.000   0.833
    2        0.405   0.429   0.000   0.834
    3        0.405   0.427   0.000   0.832
    4        0.405   0.427   0.000   0.832
    5        0.405   0.429   0.000   0.834
    6        0.405   0.427   0.000   0.832
    7        0.405   0.428   0.000   0.833
    8        0.405   0.430   0.000   0.835
    9        0.405   0.427   0.000   0.832
   10        0.405   0.428   0.000   0.833
   11        0.405   0.429   0.000   0.833
   12        0.405   0.427   0.000   0.832
   13        0.405   0.428   0.000   0.832
   14        0.405   0.429   0.000   0.834
   15        0.405   0.427   0.000   0.832
   16        0.405   0.424   0.000   0.829
   17        0.405   0.424   0.000   0.829
   18        0.405   0.427   0.000   0.832
   19        0.405   0.428   0.000   0.833
   20        0.405   0.429   0.000   0.834
   21        0.405   0.427   0.000   0.832
   22        0.405   0.428   0.000   0.833
   23        0.405   0.430   0.000   0.834
   24        0.405   0.427   0.000   0.832
   25        0.405   0.429   0.000   0.833
   26        0.405   0.430   0.000   0.835
   27        0.405   0.427   0.000   0.832
   28        0.332   0.355   5.104   5.791
   29        0.335   0.350   5.134   5.819
   30        0.334   0.351   5.145   5.829
   31        0.336   0.353   5.128   5.817
   32        0.332   0.351   5.155   5.839
   33        0.334   0.349   5.145   5.829
   34        0.335   0.353   5.128   5.817
   35        0.332   0.351   5.136   5.819
   36        0.334   0.350   5.141   5.825
   37        0.332   0.355   5.100   5.786
   38        0.335   0.351   5.128   5.814
   39        0.334   0.351   5.138   5.823
   40        0.335   0.353   5.129   5.818
   41        0.332   0.352   5.131   5.814
   42        0.334   0.350   5.136   5.820
   43        0.335   0.354   5.123   5.811
   44        0.332   0.352   5.125   5.809
   45        0.334   0.351   5.128   5.813
   46        0.329   0.354   5.140   5.823
   47        0.335   0.353   5.133   5.821
   48        0.334   0.348   5.141   5.823
   49        0.332   0.355   5.171   5.858
   50        0.334   0.349   5.143   5.827
   51        0.334   0.352   5.127   5.813
   52        0.332   0.355   5.169   5.856
   53        0.334   0.349   5.139   5.822
   54        0.334   0.353   5.126   5.812
--------------------------------------------------
tot         19.939  21.049 138.642 179.630
 


 magnetization (x)
 
# of ion       s       p       d       tot
------------------------------------------
    1        0.005   0.009   0.000   0.015
    2       -0.016  -0.030   0.000  -0.046
    3       -0.000   0.000   0.000  -0.000
    4        0.005   0.010   0.000   0.016
    5       -0.016  -0.030   0.000  -0.046
    6       -0.000  -0.000   0.000  -0.000
    7        0.011   0.021   0.000   0.032
    8       -0.011  -0.021   0.000  -0.031
    9        0.000  -0.001   0.000  -0.001
   10        0.011   0.020   0.000   0.032
   11       -0.010  -0.019   0.000  -0.029
   12       -0.000  -0.000   0.000  -0.000
   13        0.011   0.021   0.000   0.032
   14       -0.010  -0.020   0.000  -0.030
   15       -0.000  -0.000   0.000  -0.001
   16        0.020   0.036   0.000   0.055
   17       -0.002  -0.003   0.000  -0.005
   18        0.000   0.002   0.000   0.002
   19        0.005   0.009   0.000   0.015
   20       -0.016  -0.029   0.000  -0.045
   21       -0.000  -0.000   0.000  -0.000
   22        0.005   0.009   0.000   0.015
   23       -0.016  -0.029   0.000  -0.046
   24       -0.000   0.000   0.000   0.000
   25        0.011   0.020   0.000   0.030
   26       -0.011  -0.019   0.000  -0.030
   27        0.000  -0.001   0.000  -0.001
   28        0.023   0.021   2.202   2.245
   29        0.019   0.018   2.393   2.431
   30       -0.012  -0.018  -2.250  -2.281
   31       -0.021  -0.015  -2.441  -2.477
   32        0.013   0.018   2.224   2.255
   33       -0.018  -0.018  -2.340  -2.375
   34       -0.020  -0.016  -2.444  -2.480
   35        0.014   0.018   2.253   2.285
   36       -0.018  -0.018  -2.345  -2.381
   37        0.023   0.021   2.206   2.249
   38        0.019   0.018   2.397   2.434
   39       -0.012  -0.019  -2.264  -2.295
   40       -0.020  -0.016  -2.445  -2.481
   41        0.014   0.018   2.256   2.288
   42       -0.018  -0.018  -2.350  -2.386
   43       -0.021  -0.015  -2.444  -2.480
   44        0.014   0.018   2.266   2.298
   45       -0.018  -0.018  -2.368  -2.404
   46        0.003  -0.002   2.292   2.293
   47        0.015   0.026   2.334   2.374
   48       -0.017  -0.011  -2.290  -2.318
   49        0.025   0.024   2.271   2.319
   50        0.019   0.016   2.386   2.421
   51       -0.014  -0.021  -2.260  -2.294
   52        0.025   0.024   2.273   2.322
   53        0.019   0.017   2.392   2.427
   54       -0.014  -0.022  -2.269  -2.305
--------------------------------------------------
tot         -0.002  -0.013   1.632   1.617
 

 total amount of memory used by VASP MPI-rank0   602459. kBytes
=======================================================================

   base      :      30000. kBytes
   nonl-proj :      19946. kBytes
   fftplans  :      31580. kBytes
   grid      :      21385. kBytes
   one-center:        435. kBytes
   wavefun   :     499113. kBytes
 
  
  
 General timing and accounting informations for this job:
 ========================================================
  
                  Total CPU time used (sec):     1273.833
                            User time (sec):     1253.524
                          System time (sec):       20.308
                         Elapsed time (sec):     1289.519
  
                   Maximum memory used (kb):      756916.
                   Average memory used (kb):           0.
  
                          Minor page faults:       566503
                          Major page faults:           18
                 Voluntary context switches:         2846
