 vasp.5.4.4.18Apr17-6-g9f103f2a35 (build Dec 20 2018 12:05:58) complex          
  
 executed on             LinuxIFC date 2019.06.21  01:34:04
 running on   32 total cores
 distrk:  each k-point on    8 cores,    4 groups
 distr:  one band on NCORES_PER_BAND=   4 cores,    2 groups


--------------------------------------------------------------------------------------------------------


 INCAR:
 POTCAR:    PAW_PBE Al 04Jan2001                  
 POTCAR:    PAW_PBE Mn 06Sep2000                  

 ----------------------------------------------------------------------------- 
|                                                                             |
|           W    W    AA    RRRRR   N    N  II  N    N   GGGG   !!!           |
|           W    W   A  A   R    R  NN   N  II  NN   N  G    G  !!!           |
|           W    W  A    A  R    R  N N  N  II  N N  N  G       !!!           |
|           W WW W  AAAAAA  RRRRR   N  N N  II  N  N N  G  GGG   !            |
|           WW  WW  A    A  R   R   N   NN  II  N   NN  G    G                |
|           W    W  A    A  R    R  N    N  II  N    N   GGGG   !!!           |
|                                                                             |
|      You have enabled k-point parallelism (KPAR>1).                         |
|      This developmental code was originally  written by Paul Kent at ORNL,  |
|      and carefully double checked in Vienna.                                |
|      GW as well as linear response parallelism added by Martijn Marsman     |
|      and Georg Kresse.                                                      |
|      Carefully verify results versus KPAR=1.                                |
|      Report problems to Paul Kent and Vienna.                               |
|                                                                             |
 ----------------------------------------------------------------------------- 

 POTCAR:    PAW_PBE Al 04Jan2001                  
   VRHFIN =Al: s2p1                                                             
   LEXCH  = PE                                                                  
   EATOM  =    53.5387 eV,    3.9350 Ry                                         
                                                                                
   TITEL  = PAW_PBE Al 04Jan2001                                                
   LULTRA =        F    use ultrasoft PP ?                                      
   IUNSCR =        1    unscreen: 0-lin 1-nonlin 2-no                           
   RPACOR =    1.500    partial core radius                                     
   POMASS =   26.981; ZVAL   =    3.000    mass and valenz                      
   RCORE  =    1.900    outmost cutoff radius                                   
   RWIGS  =    2.650; RWIGS  =    1.402    wigner-seitz radius (au A)           
   ENMAX  =  240.300; ENMIN  =  180.225 eV                                      
   ICORE  =        2    local potential                                         
   LCOR   =        T    correct aug charges                                     
   LPAW   =        T    paw PP                                                  
   EAUG   =  291.052                                                            
   DEXC   =    0.000                                                            
   RMAX   =    1.939    core radius for proj-oper                               
   RAUG   =    1.300    factor for augmentation sphere                          
   RDEP   =    1.966    radius for radial grids                                 
   RDEPT  =    1.856    core radius for aug-charge                              
                                                                                
   Atomic configuration                                                         
    6 entries                                                                   
     n  l   j            E        occ.                                          
     1  0  0.50     -1511.1048   2.0000                                         
     2  0  0.50      -108.1629   2.0000                                         
     2  1  1.50       -69.6402   6.0000                                         
     3  0  0.50        -7.7528   2.0000                                         
     3  1  1.50        -2.7121   1.0000                                         
     3  2  2.50        -2.7212   0.0000                                         
   Description                                                                  
     l       E           TYP  RCUT    TYP  RCUT                                 
     0     -7.7528455     23  1.900                                             
     0     -3.3096929     23  1.900                                             
     1     -2.7120682     23  1.900                                             
     1     13.6058260     23  1.900                                             
     2     -2.7211652      7  1.900                                             
  local pseudopotential read in
  partial core-charges read in
  partial kinetic energy density read in
  atomic valenz-charges read in
  non local Contribution for L=           0  read in
    real space projection operators read in
  non local Contribution for L=           0  read in
    real space projection operators read in
  non local Contribution for L=           1  read in
    real space projection operators read in
  non local Contribution for L=           1  read in
    real space projection operators read in
    PAW grid and wavefunctions read in
 
   number of l-projection  operators is LMAX  =           4
   number of lm-projection operators is LMMAX =           8
 
 POTCAR:    PAW_PBE Mn 06Sep2000                  
   VRHFIN =Mn: d6 s1                                                            
   LEXCH  = PE                                                                  
   EATOM  =   416.7541 eV,   30.6306 Ry                                         
                                                                                
   TITEL  = PAW_PBE Mn 06Sep2000                                                
   LULTRA =        F    use ultrasoft PP ?                                      
   IUNSCR =        1    unscreen: 0-lin 1-nonlin 2-no                           
   RPACOR =    2.000    partial core radius                                     
   POMASS =   54.938; ZVAL   =    7.000    mass and valenz                      
   RCORE  =    2.300    outmost cutoff radius                                   
   RWIGS  =    2.500; RWIGS  =    1.323    wigner-seitz radius (au A)           
   ENMAX  =  269.864; ENMIN  =  202.398 eV                                      
   RCLOC  =    1.725    cutoff for local pot                                    
   LCOR   =        T    correct aug charges                                     
   LPAW   =        T    paw PP                                                  
   EAUG   =  500.711                                                            
   DEXC   =    0.000                                                            
   RMAX   =    2.343    core radius for proj-oper                               
   RAUG   =    1.300    factor for augmentation sphere                          
   RDEP   =    2.338    radius for radial grids                                 
   RDEPT  =    1.911    core radius for aug-charge                              
                                                                                
   Atomic configuration                                                         
    9 entries                                                                   
     n  l   j            E        occ.                                          
     1  0  0.50     -6424.8288   2.0000                                         
     2  0  0.50      -739.1154   2.0000                                         
     2  1  1.50      -625.3949   6.0000                                         
     3  0  0.50       -81.6100   2.0000                                         
     3  1  1.50       -50.4667   6.0000                                         
     3  2  2.50        -3.3745   6.0000                                         
     4  0  0.50        -4.1331   1.0000                                         
     4  1  0.50        -4.0817   0.0000                                         
     4  3  2.50        -1.3606   0.0000                                         
   Description                                                                  
     l       E           TYP  RCUT    TYP  RCUT                                 
     2     -3.3744664     23  2.300                                             
     2     -4.7350490     23  2.300                                             
     0     -4.1331408     23  2.300                                             
     0      7.6656614     23  2.300                                             
     1     -2.7211652     23  2.300                                             
     1     20.4087390     23  2.300                                             
  local pseudopotential read in
  partial core-charges read in
  partial kinetic energy density read in
  atomic valenz-charges read in
  non local Contribution for L=           2  read in
    real space projection operators read in
  non local Contribution for L=           2  read in
    real space projection operators read in
  non local Contribution for L=           0  read in
    real space projection operators read in
  non local Contribution for L=           0  read in
    real space projection operators read in
  non local Contribution for L=           1  read in
    real space projection operators read in
  non local Contribution for L=           1  read in
    real space projection operators read in
    PAW grid and wavefunctions read in
 
   number of l-projection  operators is LMAX  =           6
   number of lm-projection operators is LMMAX =          18
 

 ----------------------------------------------------------------------------- 
|                                                                             |
|  ADVICE TO THIS USER RUNNING 'VASP/VAMP'   (HEAR YOUR MASTER'S VOICE ...):  |
|                                                                             |
|      You have a (more or less) 'large supercell' and for larger cells       |
|      it might be more efficient to use real space projection opertators     |
|      So try LREAL= Auto  in the INCAR   file.                               |
|      Mind:          For very  accurate calculation you might also keep the  |
|      reciprocal projection scheme          (i.e. LREAL=.FALSE.)             |
|                                                                             |
 ----------------------------------------------------------------------------- 

  PAW_PBE Al 04Jan2001                  :
 energy of atom  1       EATOM=  -53.5387
 kinetic energy error for atom=    0.0005 (will be added to EATOM!!)
  PAW_PBE Mn 06Sep2000                  :
 energy of atom  2       EATOM= -416.7541
 kinetic energy error for atom=    0.0080 (will be added to EATOM!!)
 
 
 POSCAR: NewRef: 27, @ ['Mn', array([1.37502469, 
  positions in cartesian coordinates
  velocities in cartesian coordinates
  No initial velocities read in
 exchange correlation table for  LEXCH =        8
   RHO(1)=    0.500       N(1)  =     2000
   RHO(2)=  100.500       N(2)  =     4000
 


--------------------------------------------------------------------------------------------------------


 ion  position               nearest neighbor table
   1  0.000  0.000  0.000-  28 2.61  30 2.61  34 2.61  36 2.61  46 2.61  48 2.61  52 2.61  54 2.61
                             4 2.75  10 2.75   7 2.75  19 2.75
   2  0.000  0.000  0.333-  28 2.61  34 2.61  46 2.61  52 2.61  29 2.61  47 2.61  35 2.61  53 2.61
                             5 2.75  11 2.75   8 2.75  20 2.75
   3  0.000  0.000  0.667-  29 2.61  35 2.61  47 2.61  53 2.61  30 2.61  48 2.61  36 2.61  54 2.61
                             6 2.75  12 2.75   9 2.75  21 2.75
   4  0.000  0.333  0.000-  28 2.61  30 2.61  46 2.61  48 2.61  31 2.61  33 2.61  49 2.61  51 2.61
                            13 2.75   1 2.75   7 2.75  22 2.75
   5  0.000  0.333  0.333-  28 2.61  46 2.61  31 2.61  49 2.61  47 2.61  29 2.61  32 2.61  50 2.61
                            14 2.75   2 2.75   8 2.75  23 2.75
   6  0.000  0.333  0.667-  29 2.61  47 2.61  32 2.61  50 2.61  48 2.61  30 2.61  33 2.61  51 2.61
                            15 2.75   3 2.75   9 2.75  24 2.75
   7  0.000  0.667  0.000-  31 2.61  33 2.61  49 2.61  51 2.61  34 2.61  36 2.61  52 2.61  54 2.61
                             4 2.75  16 2.75   1 2.75  25 2.75
   8  0.000  0.667  0.333-  31 2.61  49 2.61  34 2.61  52 2.61  50 2.61  32 2.61  35 2.61  53 2.61
                             5 2.75  17 2.75   2 2.75  26 2.75
   9  0.000  0.667  0.667-  32 2.61  50 2.61  35 2.61  53 2.61  51 2.61  33 2.61  36 2.61  54 2.61
                             6 2.75  18 2.75   3 2.75  27 2.75
  10  0.333  0.000  0.000-  28 2.61  30 2.61  34 2.61  36 2.61  37 2.61  39 2.61  43 2.61  45 2.61
                            19 2.75   1 2.75  13 2.75  16 2.75
  11  0.333  0.000  0.333-  28 2.61  34 2.61  37 2.61  43 2.61  29 2.61  35 2.61  38 2.61  44 2.61
                            20 2.75   2 2.75  14 2.75  17 2.75
  12  0.333  0.000  0.667-  29 2.61  35 2.61  38 2.61  44 2.61  30 2.61  36 2.61  39 2.61  45 2.61
                            21 2.75   3 2.75  15 2.75  18 2.75
  13  0.333  0.333  0.000-  28 2.61  30 2.61  31 2.61  33 2.61  37 2.61  39 2.61  40 2.61  42 2.61
                             4 2.75  10 2.75  16 2.75  22 2.75
  14  0.333  0.333  0.333-  28 2.61  31 2.61  37 2.61  29 2.61  40 2.61  38 2.61  32 2.61  41 2.61
                             5 2.75  11 2.75  17 2.75  23 2.75
  15  0.333  0.333  0.667-  29 2.61  32 2.61  38 2.61  30 2.61  41 2.61  39 2.61  33 2.61  42 2.61
                             6 2.75  12 2.75  18 2.75  24 2.75
  16  0.333  0.667  0.000-  31 2.61  33 2.61  34 2.61  36 2.61  40 2.61  42 2.61  43 2.61  45 2.61
                            25 2.75   7 2.75  13 2.75  10 2.75
  17  0.333  0.667  0.333-  31 2.61  34 2.61  40 2.61  32 2.61  43 2.61  41 2.61  35 2.61  44 2.61
                            26 2.75   8 2.75  14 2.75  11 2.75
  18  0.333  0.667  0.667-  32 2.61  35 2.61  41 2.61  33 2.61  44 2.61  42 2.61  36 2.61  45 2.61
                            27 2.75   9 2.75  15 2.75  12 2.75
  19  0.667  0.000  0.000-  37 2.61  39 2.61  43 2.61  45 2.61  46 2.61  48 2.61  52 2.61  54 2.61
                            10 2.75  22 2.75   1 2.75  25 2.75
  20  0.667  0.000  0.333-  37 2.61  43 2.61  46 2.61  52 2.61  38 2.61  44 2.61  47 2.61  53 2.61
                            11 2.75  23 2.75   2 2.75  26 2.75
  21  0.667  0.000  0.667-  38 2.61  44 2.61  47 2.61  53 2.61  39 2.61  45 2.61  48 2.61  54 2.61
                            12 2.75  24 2.75   3 2.75  27 2.75
  22  0.667  0.333  0.000-  37 2.61  39 2.61  40 2.61  42 2.61  46 2.61  48 2.61  49 2.61  51 2.61
                            25 2.75  13 2.75  19 2.75   4 2.75
  23  0.667  0.333  0.333-  37 2.61  40 2.61  46 2.61  38 2.61  49 2.61  47 2.61  41 2.61  50 2.61
                            26 2.75  14 2.75  20 2.75   5 2.75
  24  0.667  0.333  0.667-  38 2.61  41 2.61  47 2.61  39 2.61  50 2.61  48 2.61  42 2.61  51 2.61
                            27 2.75  15 2.75  21 2.75   6 2.75
  25  0.667  0.667  0.000-  40 2.61  42 2.61  43 2.61  45 2.61  49 2.61  51 2.61  52 2.61  54 2.61
                            16 2.75  22 2.75  19 2.75   7 2.75
  26  0.667  0.667  0.333-  40 2.61  43 2.61  49 2.61  41 2.61  52 2.61  50 2.61  44 2.61  53 2.61
                            17 2.75  23 2.75  20 2.75   8 2.75
  27  0.667  0.667  0.667-  41 2.61  44 2.61  50 2.61  42 2.61  53 2.61  51 2.61  45 2.61  54 2.61
                            18 2.75  24 2.75  21 2.75   9 2.75
  28  0.167  0.167  0.167-  14 2.61  11 2.61   5 2.61  13 2.61   2 2.61  10 2.61   4 2.61   1 2.61
                            31 2.75  37 2.75  34 2.75  46 2.75
  29  0.167  0.167  0.500-  15 2.61  12 2.61   6 2.61  14 2.61   3 2.61  11 2.61   5 2.61   2 2.61
                            32 2.75  38 2.75  35 2.75  47 2.75
  30  0.167  0.167  0.833-  13 2.61  15 2.61  10 2.61  12 2.61   4 2.61   6 2.61   1 2.61   3 2.61
                            33 2.75  39 2.75  36 2.75  48 2.75
  31  0.167  0.500  0.167-  17 2.61  14 2.61   8 2.61  16 2.61   5 2.61  13 2.61   7 2.61   4 2.61
                            28 2.75  34 2.75  40 2.75  49 2.75
  32  0.167  0.500  0.500-  18 2.61  15 2.61   9 2.61  17 2.61   6 2.61  14 2.61   8 2.61   5 2.61
                            29 2.75  35 2.75  41 2.75  50 2.75
  33  0.167  0.500  0.833-  16 2.61  18 2.61  13 2.61  15 2.61   7 2.61   9 2.61   4 2.61   6 2.61
                            30 2.75  36 2.75  42 2.75  51 2.75
  34  0.167  0.833  0.167-  11 2.61  17 2.61   2 2.61   8 2.61  16 2.61  10 2.61   7 2.61   1 2.61
                            31 2.75  43 2.75  28 2.75  52 2.75
  35  0.167  0.833  0.500-  12 2.61  18 2.61   3 2.61   9 2.61  17 2.61  11 2.61   8 2.61   2 2.61
                            32 2.75  44 2.75  29 2.75  53 2.75
  36  0.167  0.833  0.833-  10 2.61  12 2.61  16 2.61  18 2.61   1 2.61   3 2.61   7 2.61   9 2.61
                            33 2.75  45 2.75  30 2.75  54 2.75
  37  0.500  0.167  0.167-  23 2.61  20 2.61  14 2.61  22 2.61  11 2.61  19 2.61  13 2.61  10 2.61
                            28 2.75  40 2.75  46 2.75  43 2.75
  38  0.500  0.167  0.500-  24 2.61  21 2.61  15 2.61  23 2.61  12 2.61  20 2.61  14 2.61  11 2.61
                            29 2.75  41 2.75  47 2.75  44 2.75
  39  0.500  0.167  0.833-  22 2.61  24 2.61  19 2.61  21 2.61  13 2.61  15 2.61  10 2.61  12 2.61
                            30 2.75  42 2.75  48 2.75  45 2.75
  40  0.500  0.500  0.167-  26 2.61  23 2.61  17 2.61  25 2.61  14 2.61  22 2.61  16 2.61  13 2.61
                            31 2.75  37 2.75  43 2.75  49 2.75
  41  0.500  0.500  0.500-  27 2.61  24 2.61  18 2.61  26 2.61  15 2.61  23 2.61  17 2.61  14 2.61
                            32 2.75  38 2.75  44 2.75  50 2.75
  42  0.500  0.500  0.833-  25 2.61  27 2.61  22 2.61  24 2.61  16 2.61  18 2.61  13 2.61  15 2.61
                            33 2.75  39 2.75  45 2.75  51 2.75
  43  0.500  0.833  0.167-  20 2.61  26 2.61  11 2.61  17 2.61  25 2.61  19 2.61  16 2.61  10 2.61
                            34 2.75  40 2.75  52 2.75  37 2.75
  44  0.500  0.833  0.500-  21 2.61  27 2.61  12 2.61  18 2.61  26 2.61  20 2.61  17 2.61  11 2.61
                            35 2.75  41 2.75  53 2.75  38 2.75
  45  0.500  0.833  0.833-  19 2.61  21 2.61  25 2.61  27 2.61  10 2.61  12 2.61  16 2.61  18 2.61
                            36 2.75  42 2.75  54 2.75  39 2.75
  46  0.833  0.167  0.167-   5 2.61  23 2.61  20 2.61   2 2.61  22 2.61   4 2.61  19 2.61   1 2.61
                            37 2.75  49 2.75  28 2.75  52 2.75
  47  0.833  0.167  0.500-   6 2.61  24 2.61  21 2.61   3 2.61  23 2.61   5 2.61  20 2.61   2 2.61
                            38 2.75  50 2.75  29 2.75  53 2.75
  48  0.833  0.167  0.833-   4 2.61   6 2.61  22 2.61  24 2.61  19 2.61  21 2.61   1 2.61   3 2.61
                            39 2.75  51 2.75  30 2.75  54 2.75
  49  0.833  0.500  0.167-   8 2.61  26 2.61  23 2.61   5 2.61  25 2.61   7 2.61  22 2.61   4 2.61
                            40 2.75  46 2.75  52 2.75  31 2.75
  50  0.833  0.500  0.500-   9 2.61  27 2.61  24 2.61   6 2.61  26 2.61   8 2.61  23 2.61   5 2.61
                            41 2.75  47 2.75  53 2.75  32 2.75
  51  0.833  0.500  0.833-   7 2.61   9 2.61  25 2.61  27 2.61  22 2.61  24 2.61   4 2.61   6 2.61
                            42 2.75  48 2.75  54 2.75  33 2.75
  52  0.833  0.833  0.167-   2 2.61   8 2.61  20 2.61  26 2.61  19 2.61   7 2.61  25 2.61   1 2.61
                            43 2.75  49 2.75  46 2.75  34 2.75
  53  0.833  0.833  0.500-   3 2.61   9 2.61  21 2.61  27 2.61  20 2.61   8 2.61  26 2.61   2 2.61
                            44 2.75  50 2.75  47 2.75  35 2.75
  54  0.833  0.833  0.833-   1 2.61   3 2.61   7 2.61   9 2.61  19 2.61  21 2.61  25 2.61  27 2.61
                            45 2.75  51 2.75  48 2.75  36 2.75
 
  LATTYP: Found a simple tetragonal cell.
 ALAT       =     8.2501481662
 C/A-ratio  =     1.2642089792
  
  Lattice vectors:
  
 A1 = (   8.2501481662,   0.0000000000,   0.0000000000)
 A2 = (   0.0000000000,   8.2501481662,   0.0000000000)
 A3 = (   0.0000000000,   0.0000000000,  10.4299113916)


Analysis of symmetry for initial positions (statically):
=====================================================================
 Subroutine PRICEL returns following result:
 
  LATTYP: Found a simple tetragonal cell.
 ALAT       =     2.7500493888
 C/A-ratio  =     1.2642089792
  
  Lattice vectors:
  
 A1 = (   2.7500493888,   0.0000000000,   0.0000000000)
 A2 = (   0.0000000000,   2.7500493888,   0.0000000000)
 A3 = (   0.0000000000,   0.0000000000,   3.4766371306)
 
  27 primitive cells build up your supercell.
 

 Routine SETGRP: Setting up the symmetry group for a 
 simple tetragonal supercell.


 Subroutine GETGRP returns: Found 16 space group operations
 (whereof 16 operations were pure point group operations)
 out of a pool of 16 trial point group operations.


The static configuration has the point symmetry D_4h.


Analysis of symmetry for dynamics (positions and initial velocities):
=====================================================================
 Subroutine PRICEL returns following result:
 
  LATTYP: Found a simple tetragonal cell.
 ALAT       =     2.7500493888
 C/A-ratio  =     1.2642089792
  
  Lattice vectors:
  
 A1 = (   2.7500493888,   0.0000000000,   0.0000000000)
 A2 = (   0.0000000000,   2.7500493888,   0.0000000000)
 A3 = (   0.0000000000,   0.0000000000,   3.4766371306)
 
  27 primitive cells build up your supercell.
 

 Routine SETGRP: Setting up the symmetry group for a 
 simple tetragonal supercell.


 Subroutine GETGRP returns: Found 16 space group operations
 (whereof 16 operations were pure point group operations)
 out of a pool of 16 trial point group operations.


The dynamic configuration has the point symmetry D_4h.


Analysis of structural, dynamic, and magnetic symmetry:
=====================================================================
 Subroutine PRICEL returns:
 Original cell was already a primitive cell.
 

 Routine SETGRP: Setting up the symmetry group for a 
 simple tetragonal supercell.


 Subroutine GETGRP returns: Found  8 space group operations
 (whereof  2 operations were pure point group operations)
 out of a pool of 16 trial point group operations.


The magnetic configuration has the point symmetry C_1h.
 The point group associated with its full space group is D_2h.


 Subroutine INISYM returns: Found  8 space group operations
 (whereof  2 operations are pure point group operations),
 and found     1 'primitive' translations

 
 
 KPOINTS: automatic KPOINTS                       

Automatic generation of k-mesh.
 generate k-points for:    5    5    4
Space group operators:
 irot       det(A)        alpha          n_x          n_y          n_z        tau_x        tau_y        tau_z
    1     1.000000     0.000001     1.000000     0.000000     0.000000     0.000000     0.000000     0.000000
    2    -1.000000   180.000000     1.000000     0.000000     0.000000     0.000000     0.000000     0.000000
    3    -1.000000     0.000001     1.000000     0.000000     0.000000     0.000000     0.666667     0.666667
    4     1.000000   180.000000     0.000000     0.000000     1.000000     0.000000     0.666667     0.000000
    5    -1.000000   180.000000     0.000000     0.000000     1.000000     0.000000     0.000000     0.666667
    6     1.000000   180.000000     0.000000     1.000000     0.000000     0.000000     0.000000     0.666667
    7    -1.000000   180.000000     0.000000     1.000000     0.000000     0.000000     0.666667     0.000000
    8     1.000000   180.000000     1.000000     0.000000     0.000000     0.000000     0.666667     0.666667
 
 Subroutine IBZKPT returns following result:
 ===========================================
 
 Found     27 irreducible k-points:
 
 Following reciprocal coordinates:
            Coordinates               Weight
  0.000000  0.000000  0.000000      1.000000
  0.200000  0.000000  0.000000      2.000000
  0.400000  0.000000  0.000000      2.000000
  0.000000  0.200000  0.000000      2.000000
  0.200000  0.200000  0.000000      4.000000
  0.400000  0.200000  0.000000      4.000000
  0.000000  0.400000  0.000000      2.000000
  0.200000  0.400000  0.000000      4.000000
  0.400000  0.400000  0.000000      4.000000
  0.000000  0.000000  0.250000      2.000000
  0.200000  0.000000  0.250000      4.000000
  0.400000  0.000000  0.250000      4.000000
  0.000000  0.200000  0.250000      4.000000
  0.200000  0.200000  0.250000      8.000000
  0.400000  0.200000  0.250000      8.000000
  0.000000  0.400000  0.250000      4.000000
  0.200000  0.400000  0.250000      8.000000
  0.400000  0.400000  0.250000      8.000000
  0.000000  0.000000  0.500000      1.000000
  0.200000  0.000000  0.500000      2.000000
  0.400000  0.000000  0.500000      2.000000
  0.000000  0.200000  0.500000      2.000000
  0.200000  0.200000  0.500000      4.000000
  0.400000  0.200000  0.500000      4.000000
  0.000000  0.400000  0.500000      2.000000
  0.200000  0.400000  0.500000      4.000000
  0.400000  0.400000  0.500000      4.000000
 
 Following cartesian coordinates:
            Coordinates               Weight
  0.000000  0.000000  0.000000      1.000000
  0.024242  0.000000  0.000000      2.000000
  0.048484  0.000000  0.000000      2.000000
  0.000000  0.024242  0.000000      2.000000
  0.024242  0.024242  0.000000      4.000000
  0.048484  0.024242  0.000000      4.000000
  0.000000  0.048484  0.000000      2.000000
  0.024242  0.048484  0.000000      4.000000
  0.048484  0.048484  0.000000      4.000000
  0.000000  0.000000  0.023970      2.000000
  0.024242  0.000000  0.023970      4.000000
  0.048484  0.000000  0.023970      4.000000
  0.000000  0.024242  0.023970      4.000000
  0.024242  0.024242  0.023970      8.000000
  0.048484  0.024242  0.023970      8.000000
  0.000000  0.048484  0.023970      4.000000
  0.024242  0.048484  0.023970      8.000000
  0.048484  0.048484  0.023970      8.000000
  0.000000  0.000000  0.047939      1.000000
  0.024242  0.000000  0.047939      2.000000
  0.048484  0.000000  0.047939      2.000000
  0.000000  0.024242  0.047939      2.000000
  0.024242  0.024242  0.047939      4.000000
  0.048484  0.024242  0.047939      4.000000
  0.000000  0.048484  0.047939      2.000000
  0.024242  0.048484  0.047939      4.000000
  0.048484  0.048484  0.047939      4.000000
 


--------------------------------------------------------------------------------------------------------




 Dimension of arrays:
   k-points           NKPTS =     27   k-points in BZ     NKDIM =     27   number of bands    NBANDS=    184
   number of dos      NEDOS =    301   number of ions     NIONS =     54
   non local maximal  LDIM  =      6   non local SUM 2l+1 LMDIM =     18
   total plane-waves  NPLWV = 204120
   max r-space proj   IRMAX =      1   max aug-charges    IRDMAX=  89713
   dimension x,y,z NGX =    54 NGY =   54 NGZ =   70
   dimension x,y,z NGXF=   108 NGYF=  108 NGZF=  140
   support grid    NGXF=   216 NGYF=  216 NGZF=  280
   ions per type =              27  27
   NGX,Y,Z   is equivalent  to a cutoff of  10.88, 10.88, 11.16 a.u.
   NGXF,Y,Z  is equivalent  to a cutoff of  21.76, 21.76, 22.32 a.u.

 SYSTEM =  AlMn_pv                                 
 POSCAR =  NewRef: 27, @ ['Mn', array([1.37502469, 

 Startparameter for this run:
   NWRITE =      2    write-flag & timer
   PREC   = accura    normal or accurate (medium, high low for compatibility)
   ISTART =      0    job   : 0-new  1-cont  2-samecut
   ICHARG =      2    charge: 1-file 2-atom 10-const
   ISPIN  =      2    spin polarized calculation?
   LNONCOLLINEAR =      F non collinear calculations
   LSORBIT =      F    spin-orbit coupling
   INIWAV =      1    electr: 0-lowe 1-rand  2-diag
   LASPH  =      F    aspherical Exc in radial PAW
   METAGGA=      F    non-selfconsistent MetaGGA calc.

 Electronic Relaxation 1
   ENCUT  =  404.8 eV  29.75 Ry    5.45 a.u.  13.53 13.53 17.11*2*pi/ulx,y,z
   ENINI  =  404.8     initial cutoff
   ENAUG  =  500.7 eV  augmentation charge cutoff
   NELM   =    100;   NELMIN=  4; NELMDL= -8     # of ELM steps 
   EDIFF  = 0.1E-06   stopping-criterion for ELM
   LREAL  =      F    real-space projection
   NLSPLINE    = F    spline interpolate recip. space projectors
   LCOMPAT=      F    compatible to vasp.4.4
   GGA_COMPAT  = T    GGA compatible to vasp.4.4-vasp.4.6
   LMAXPAW     = -100 max onsite density
   LMAXMIX     =    2 max onsite mixed and CHGCAR
   VOSKOWN=      0    Vosko Wilk Nusair interpolation
   ROPT   =    0.00000   0.00000
 Ionic relaxation
   EDIFFG = 0.1E-05   stopping-criterion for IOM
   NSW    =      0    number of steps for IOM
   NBLOCK =      1;   KBLOCK =      1    inner block; outer block 
   IBRION =     -1    ionic relax: 0-MD 1-quasi-New 2-CG
   NFREE  =      0    steps in history (QN), initial steepest desc. (CG)
   ISIF   =      2    stress and relaxation
   IWAVPR =     10    prediction:  0-non 1-charg 2-wave 3-comb
   ISYM   =      2    0-nonsym 1-usesym 2-fastsym
   LCORR  =      T    Harris-Foulkes like correction to forces

   POTIM  = 0.2000    time-step for ionic-motion
   TEIN   =    0.0    initial temperature
   TEBEG  =    0.0;   TEEND  =   0.0 temperature during run
   SMASS  =  -3.00    Nose mass-parameter (am)
   estimated Nose-frequenzy (Omega)   =  0.10E-29 period in steps =****** mass=  -0.156E-26a.u.
   SCALEE = 1.0000    scale energy and forces
   NPACO  =    256;   APACO  = 16.0  distance and # of slots for P.C.
   PSTRESS=    0.0 pullay stress

  Mass of Ions in am
   POMASS =  26.98 54.94
  Ionic Valenz
   ZVAL   =   3.00  7.00
  Atomic Wigner-Seitz radii
   RWIGS  =  -1.00 -1.00
  virtual crystal weights 
   VCA    =   1.00  1.00
   NELECT =     270.0000    total number of electrons
   NUPDOWN=      -1.0000    fix difference up-down

 DOS related values:
   EMIN   =  10.00;   EMAX   =-10.00  energy-range for DOS
   EFERMI =   0.00
   ISMEAR =     1;   SIGMA  =   0.20  broadening in eV -4-tet -1-fermi 0-gaus

 Electronic relaxation 2 (details)
   IALGO  =     58    algorithm
   LDIAG  =      T    sub-space diagonalisation (order eigenvalues)
   LSUBROT=      F    optimize rotation matrix (better conditioning)
   TURBO    =      0    0=normal 1=particle mesh
   IRESTART =      0    0=no restart 2=restart with 2 vectors
   NREBOOT  =      0    no. of reboots
   NMIN     =      0    reboot dimension
   EREF     =   0.00    reference energy to select bands
   IMIX   =      4    mixing-type and parameters
     AMIX     =   0.40;   BMIX     =  1.00
     AMIX_MAG =   1.60;   BMIX_MAG =  1.00
     AMIN     =   0.10
     WC   =   100.;   INIMIX=   1;  MIXPRE=   1;  MAXMIX= -45

 Intra band minimization:
   WEIMIN = 0.0000     energy-eigenvalue tresh-hold
   EBREAK =  0.14E-09  absolut break condition
   DEPER  =   0.30     relativ break condition  

   TIME   =   0.40     timestep for ELM

  volume/ion in A,a.u.               =      13.15        88.72
  Fermi-wavevector in a.u.,A,eV,Ry     =   1.186118  2.241439 19.141722  1.406877
  Thomas-Fermi vector in A             =   2.322298
 
 Write flags
   LWAVE        =      F    write WAVECAR
   LDOWNSAMPLE  =      F    k-point downsampling of WAVECAR
   LCHARG       =      F    write CHGCAR
   LVTOT        =      F    write LOCPOT, total local potential
   LVHAR        =      F    write LOCPOT, Hartree potential only
   LELF         =      F    write electronic localiz. function (ELF)
   LORBIT       =     10    0 simple, 1 ext, 2 COOP (PROOUT), +10 PAW based schemes


 Dipole corrections
   LMONO  =      F    monopole corrections only (constant potential shift)
   LDIPOL =      F    correct potential (dipole corrections)
   IDIPOL =      0    1-x, 2-y, 3-z, 4-all directions 
   EPSILON=  1.0000000 bulk dielectric constant

 Exchange correlation treatment:
   GGA     =    --    GGA type
   LEXCH   =     8    internal setting for exchange type
   VOSKOWN=      0    Vosko Wilk Nusair interpolation
   LHFCALC =     F    Hartree Fock is set to
   LHFONE  =     F    Hartree Fock one center treatment
   AEXX    =    0.0000 exact exchange contribution

 Linear response parameters
   LEPSILON=     F    determine dielectric tensor
   LRPA    =     F    only Hartree local field effects (RPA)
   LNABLA  =     F    use nabla operator in PAW spheres
   LVEL    =     F    velocity operator in full k-point grid
   LINTERFAST=   F  fast interpolation
   KINTER  =     0    interpolate to denser k-point grid
   CSHIFT  =0.1000    complex shift for real part using Kramers Kronig
   OMEGAMAX=  -1.0    maximum frequency
   DEG_THRESHOLD= 0.2000000E-02 threshold for treating states as degnerate
   RTIME   =   -0.100 relaxation time in fs
  (WPLASMAI=    0.000 imaginary part of plasma frequency in eV, 0.658/RTIME)
   DFIELD  = 0.0000000 0.0000000 0.0000000 field for delta impulse in time
 
 Orbital magnetization related:
   ORBITALMAG=     F  switch on orbital magnetization
   LCHIMAG   =     F  perturbation theory with respect to B field
   DQ        =  0.001000  dq finite difference perturbation B field
   LLRAUG    =     F  two centre corrections for induced B field



--------------------------------------------------------------------------------------------------------


 Static calculation
 charge density and potential will be updated during run
 spin polarized calculation
 Conjugate gradient for all bands (Freysoldt, et al. PRB 79, 241103 (2009))
 preconditioned conjugated gradient                                        
 perform sub-space diagonalisation
    before iterative eigenvector-optimisation
 modified Broyden-mixing scheme, WC =      100.0
 initial mixing is a Kerker type mixing with AMIX =  0.4000 and BMIX =      1.0000
 Hartree-type preconditioning will be used
 using additional bands           49
 reciprocal scheme for non local part
 use partial core corrections
 no Harris-corrections to forces 
 use gradient corrections 
 use of overlap-Matrix (Vanderbilt PP)
 Methfessel and Paxton  Order N= 1 SIGMA  =   0.20


--------------------------------------------------------------------------------------------------------


  energy-cutoff  :      404.80
  volume of cell :      709.91
      direct lattice vectors                 reciprocal lattice vectors
     8.250148166  0.000000000  0.000000000     0.121209944  0.000000000  0.000000000
     0.000000000  8.250148166  0.000000000     0.000000000  0.121209944  0.000000000
     0.000000000  0.000000000 10.429911392     0.000000000  0.000000000  0.095878092

  length of vectors
     8.250148166  8.250148166 10.429911392     0.121209944  0.121209944  0.095878092


 
 k-points in units of 2pi/SCALE and weight: automatic KPOINTS                       
   0.00000000  0.00000000  0.00000000       0.010
   0.02424199  0.00000000  0.00000000       0.020
   0.04848398  0.00000000  0.00000000       0.020
   0.00000000  0.02424199  0.00000000       0.020
   0.02424199  0.02424199  0.00000000       0.040
   0.04848398  0.02424199  0.00000000       0.040
   0.00000000  0.04848398  0.00000000       0.020
   0.02424199  0.04848398  0.00000000       0.040
   0.04848398  0.04848398  0.00000000       0.040
   0.00000000  0.00000000  0.02396952       0.020
   0.02424199  0.00000000  0.02396952       0.040
   0.04848398  0.00000000  0.02396952       0.040
   0.00000000  0.02424199  0.02396952       0.040
   0.02424199  0.02424199  0.02396952       0.080
   0.04848398  0.02424199  0.02396952       0.080
   0.00000000  0.04848398  0.02396952       0.040
   0.02424199  0.04848398  0.02396952       0.080
   0.04848398  0.04848398  0.02396952       0.080
   0.00000000  0.00000000  0.04793905       0.010
   0.02424199  0.00000000  0.04793905       0.020
   0.04848398  0.00000000  0.04793905       0.020
   0.00000000  0.02424199  0.04793905       0.020
   0.02424199  0.02424199  0.04793905       0.040
   0.04848398  0.02424199  0.04793905       0.040
   0.00000000  0.04848398  0.04793905       0.020
   0.02424199  0.04848398  0.04793905       0.040
   0.04848398  0.04848398  0.04793905       0.040
 
 k-points in reciprocal lattice and weights: automatic KPOINTS                       
   0.00000000  0.00000000  0.00000000       0.010
   0.20000000  0.00000000  0.00000000       0.020
   0.40000000  0.00000000  0.00000000       0.020
   0.00000000  0.20000000  0.00000000       0.020
   0.20000000  0.20000000  0.00000000       0.040
   0.40000000  0.20000000  0.00000000       0.040
   0.00000000  0.40000000  0.00000000       0.020
   0.20000000  0.40000000  0.00000000       0.040
   0.40000000  0.40000000  0.00000000       0.040
   0.00000000  0.00000000  0.25000000       0.020
   0.20000000  0.00000000  0.25000000       0.040
   0.40000000  0.00000000  0.25000000       0.040
   0.00000000  0.20000000  0.25000000       0.040
   0.20000000  0.20000000  0.25000000       0.080
   0.40000000  0.20000000  0.25000000       0.080
   0.00000000  0.40000000  0.25000000       0.040
   0.20000000  0.40000000  0.25000000       0.080
   0.40000000  0.40000000  0.25000000       0.080
   0.00000000  0.00000000  0.50000000       0.010
   0.20000000  0.00000000  0.50000000       0.020
   0.40000000  0.00000000  0.50000000       0.020
   0.00000000  0.20000000  0.50000000       0.020
   0.20000000  0.20000000  0.50000000       0.040
   0.40000000  0.20000000  0.50000000       0.040
   0.00000000  0.40000000  0.50000000       0.020
   0.20000000  0.40000000  0.50000000       0.040
   0.40000000  0.40000000  0.50000000       0.040
 
 position of ions in fractional coordinates (direct lattice) 
   0.00000000  0.00000000  0.00000000
   0.00000000  0.00000000  0.33333333
   0.00000000  0.00000000  0.66666667
   0.00000000  0.33333333  0.00000000
   0.00000000  0.33333333  0.33333333
   0.00000000  0.33333333  0.66666667
   0.00000000  0.66666667  0.00000000
   0.00000000  0.66666667  0.33333333
   0.00000000  0.66666667  0.66666667
   0.33333333  0.00000000  0.00000000
   0.33333333  0.00000000  0.33333333
   0.33333333  0.00000000  0.66666667
   0.33333333  0.33333333  0.00000000
   0.33333333  0.33333333  0.33333333
   0.33333333  0.33333333  0.66666667
   0.33333333  0.66666667  0.00000000
   0.33333333  0.66666667  0.33333333
   0.33333333  0.66666667  0.66666667
   0.66666667  0.00000000  0.00000000
   0.66666667  0.00000000  0.33333333
   0.66666667  0.00000000  0.66666667
   0.66666667  0.33333333  0.00000000
   0.66666667  0.33333333  0.33333333
   0.66666667  0.33333333  0.66666667
   0.66666667  0.66666667  0.00000000
   0.66666667  0.66666667  0.33333333
   0.66666667  0.66666667  0.66666667
   0.16666667  0.16666667  0.16666667
   0.16666667  0.16666667  0.50000000
   0.16666667  0.16666667  0.83333333
   0.16666667  0.50000000  0.16666667
   0.16666667  0.50000000  0.50000000
   0.16666667  0.50000000  0.83333333
   0.16666667  0.83333333  0.16666667
   0.16666667  0.83333333  0.50000000
   0.16666667  0.83333333  0.83333333
   0.50000000  0.16666667  0.16666667
   0.50000000  0.16666667  0.50000000
   0.50000000  0.16666667  0.83333333
   0.50000000  0.50000000  0.16666667
   0.50000000  0.50000000  0.50000000
   0.50000000  0.50000000  0.83333333
   0.50000000  0.83333333  0.16666667
   0.50000000  0.83333333  0.50000000
   0.50000000  0.83333333  0.83333333
   0.83333333  0.16666667  0.16666667
   0.83333333  0.16666667  0.50000000
   0.83333333  0.16666667  0.83333333
   0.83333333  0.50000000  0.16666667
   0.83333333  0.50000000  0.50000000
   0.83333333  0.50000000  0.83333333
   0.83333333  0.83333333  0.16666667
   0.83333333  0.83333333  0.50000000
   0.83333333  0.83333333  0.83333333
 
 position of ions in cartesian coordinates  (Angst):
   0.00000000  0.00000000  0.00000000
   0.00000000  0.00000000  3.47663713
   0.00000000  0.00000000  6.95327426
   0.00000000  2.75004939  0.00000000
   0.00000000  2.75004939  3.47663713
   0.00000000  2.75004939  6.95327426
   0.00000000  5.50009878  0.00000000
   0.00000000  5.50009878  3.47663713
   0.00000000  5.50009878  6.95327426
   2.75004939  0.00000000  0.00000000
   2.75004939  0.00000000  3.47663713
   2.75004939  0.00000000  6.95327426
   2.75004939  2.75004939  0.00000000
   2.75004939  2.75004939  3.47663713
   2.75004939  2.75004939  6.95327426
   2.75004939  5.50009878  0.00000000
   2.75004939  5.50009878  3.47663713
   2.75004939  5.50009878  6.95327426
   5.50009878  0.00000000  0.00000000
   5.50009878  0.00000000  3.47663713
   5.50009878  0.00000000  6.95327426
   5.50009878  2.75004939  0.00000000
   5.50009878  2.75004939  3.47663713
   5.50009878  2.75004939  6.95327426
   5.50009878  5.50009878  0.00000000
   5.50009878  5.50009878  3.47663713
   5.50009878  5.50009878  6.95327426
   1.37502469  1.37502469  1.73831857
   1.37502469  1.37502469  5.21495570
   1.37502469  1.37502469  8.69159283
   1.37502469  4.12507408  1.73831857
   1.37502469  4.12507408  5.21495570
   1.37502469  4.12507408  8.69159283
   1.37502469  6.87512347  1.73831857
   1.37502469  6.87512347  5.21495570
   1.37502469  6.87512347  8.69159283
   4.12507408  1.37502469  1.73831857
   4.12507408  1.37502469  5.21495570
   4.12507408  1.37502469  8.69159283
   4.12507408  4.12507408  1.73831857
   4.12507408  4.12507408  5.21495570
   4.12507408  4.12507408  8.69159283
   4.12507408  6.87512347  1.73831857
   4.12507408  6.87512347  5.21495570
   4.12507408  6.87512347  8.69159283
   6.87512347  1.37502469  1.73831857
   6.87512347  1.37502469  5.21495570
   6.87512347  1.37502469  8.69159283
   6.87512347  4.12507408  1.73831857
   6.87512347  4.12507408  5.21495570
   6.87512347  4.12507408  8.69159283
   6.87512347  6.87512347  1.73831857
   6.87512347  6.87512347  5.21495570
   6.87512347  6.87512347  8.69159283
 


--------------------------------------------------------------------------------------------------------


 k-point  1 :   0.0000 0.0000 0.0000  plane waves:   13099
 k-point  2 :   0.2000 0.0000 0.0000  plane waves:   13101
 k-point  3 :   0.4000 0.0000 0.0000  plane waves:   13111
 k-point  4 :   0.0000 0.2000 0.0000  plane waves:   13101
 k-point  5 :   0.2000 0.2000 0.0000  plane waves:   13137
 k-point  6 :   0.4000 0.2000 0.0000  plane waves:   13119
 k-point  7 :   0.0000 0.4000 0.0000  plane waves:   13111
 k-point  8 :   0.2000 0.4000 0.0000  plane waves:   13119
 k-point  9 :   0.4000 0.4000 0.0000  plane waves:   13129
 k-point 10 :   0.0000 0.0000 0.2500  plane waves:   13134
 k-point 11 :   0.2000 0.0000 0.2500  plane waves:   13149
 k-point 12 :   0.4000 0.0000 0.2500  plane waves:   13119
 k-point 13 :   0.0000 0.2000 0.2500  plane waves:   13149
 k-point 14 :   0.2000 0.2000 0.2500  plane waves:   13145
 k-point 15 :   0.4000 0.2000 0.2500  plane waves:   13134
 k-point 16 :   0.0000 0.4000 0.2500  plane waves:   13119
 k-point 17 :   0.2000 0.4000 0.2500  plane waves:   13134
 k-point 18 :   0.4000 0.4000 0.2500  plane waves:   13108
 k-point 19 :   0.0000 0.0000 0.5000  plane waves:   13186
 k-point 20 :   0.2000 0.0000 0.5000  plane waves:   13124
 k-point 21 :   0.4000 0.0000 0.5000  plane waves:   13152
 k-point 22 :   0.0000 0.2000 0.5000  plane waves:   13124
 k-point 23 :   0.2000 0.2000 0.5000  plane waves:   13136
 k-point 24 :   0.4000 0.2000 0.5000  plane waves:   13128
 k-point 25 :   0.0000 0.4000 0.5000  plane waves:   13152
 k-point 26 :   0.2000 0.4000 0.5000  plane waves:   13128
 k-point 27 :   0.4000 0.4000 0.5000  plane waves:   13112

 maximum and minimum number of plane-waves per node :      3304     3246

 maximum number of plane-waves:     13186
 maximum index in each direction: 
   IXMAX=   13   IYMAX=   13   IZMAX=   17
   IXMIN=  -13   IYMIN=  -13   IZMIN=  -17


 parallel 3D FFT for wavefunctions:
    minimum data exchange during FFTs selected (reduces bandwidth)
 parallel 3D FFT for charge:
    minimum data exchange during FFTs selected (reduces bandwidth)


 total amount of memory used by VASP MPI-rank0   941748. kBytes
=======================================================================

   base      :      30000. kBytes
   nonl-proj :      28494. kBytes
   fftplans  :      31580. kBytes
   grid      :      21385. kBytes
   one-center:        435. kBytes
   wavefun   :     829854. kBytes
 
     INWAV:  cpu time    0.0001: real time    0.0010
 Broyden mixing: mesh for mixing (old mesh)
   NGX = 27   NGY = 27   NGZ = 35
  (NGX  =108   NGY  =108   NGZ  =140)
  gives a total of  25515 points

 initial charge density was supplied:
 charge density of overlapping atoms calculated
 number of electron     270.0000000 magnetization      39.0000000
 keeping initial charge density in first step


--------------------------------------------------------------------------------------------------------


 Maximum index for augmentation-charges        10967 (set IRDMAX)


--------------------------------------------------------------------------------------------------------


 First call to EWALD:  gamma=   0.199
 Maximum number of real-space cells 3x 3x 2
 Maximum number of reciprocal cells 3x 3x 3

    FEWALD:  cpu time    0.0260: real time    0.0260


--------------------------------------- Iteration      1(   1)  ---------------------------------------


    POTLOK:  cpu time    0.3984: real time    0.3986
    SETDIJ:  cpu time    0.4602: real time    0.4602
    TRIAL :  cpu time   33.4993: real time   33.7226
    CORREC:  cpu time    0.0058: real time    0.0059
    --------------------------------------------
      LOOP:  cpu time   34.6290: real time   34.8802

 eigenvalue-minimisations  : 19872
 total energy-change (2. order) : 0.2019198E+04  (-0.8977505E+04)
 number of electron     270.0000000 magnetization      39.0000000
 augmentation part      270.0000000 magnetization      39.0000000

 Free energy of the ion-electron system (eV)
  ---------------------------------------------------
  alpha Z        PSCENC =       798.38614055
  Ewald energy   TEWEN  =    -12901.57693327
  -Hartree energ DENC   =     -2855.60785864
  -exchange      EXHF   =         0.00000000
  -V(xc)+E(xc)   XCENC  =      -995.99400327
  PAW double counting   =     12741.82587617   -11476.22345381
  entropy T*S    EENTRO =        -0.00642370
  eigenvalues    EBANDS =      4010.72099634
  atomic energy  EATOM  =     12697.67401269
  ---------------------------------------------------
  free energy    TOTEN  =      2019.19835304 eV

  energy without entropy =     2019.20477674  energy(sigma->0) =     2019.20049428


--------------------------------------------------------------------------------------------------------




--------------------------------------- Iteration      1(   2)  ---------------------------------------


    TRIAL :  cpu time   33.4484: real time   33.7862
    CORREC:  cpu time    0.0071: real time    0.0071
    --------------------------------------------
      LOOP:  cpu time   33.4586: real time   33.7966

 eigenvalue-minimisations  : 19872
 total energy-change (2. order) :-0.2137556E+04  (-0.2062840E+04)
 number of electron     270.0000000 magnetization      39.0000000
 augmentation part      270.0000000 magnetization      39.0000000

 Free energy of the ion-electron system (eV)
  ---------------------------------------------------
  alpha Z        PSCENC =       798.38614055
  Ewald energy   TEWEN  =    -12901.57693327
  -Hartree energ DENC   =     -2855.60785864
  -exchange      EXHF   =         0.00000000
  -V(xc)+E(xc)   XCENC  =      -995.99400327
  PAW double counting   =     12741.82587617   -11476.22345381
  entropy T*S    EENTRO =        -0.00052186
  eigenvalues    EBANDS =      1873.15912387
  atomic energy  EATOM  =     12697.67401269
  ---------------------------------------------------
  free energy    TOTEN  =      -118.35761759 eV

  energy without entropy =     -118.35709573  energy(sigma->0) =     -118.35744364


--------------------------------------------------------------------------------------------------------




--------------------------------------- Iteration      1(   3)  ---------------------------------------


    TRIAL :  cpu time   44.7861: real time   45.1070
    CORREC:  cpu time    0.0082: real time    0.0091
    --------------------------------------------
      LOOP:  cpu time   44.7957: real time   45.1198

 eigenvalue-minimisations  : 29744
 total energy-change (2. order) :-0.2456639E+03  (-0.2112778E+03)
 number of electron     270.0000000 magnetization      39.0000000
 augmentation part      270.0000000 magnetization      39.0000000

 Free energy of the ion-electron system (eV)
  ---------------------------------------------------
  alpha Z        PSCENC =       798.38614055
  Ewald energy   TEWEN  =    -12901.57693327
  -Hartree energ DENC   =     -2855.60785864
  -exchange      EXHF   =         0.00000000
  -V(xc)+E(xc)   XCENC  =      -995.99400327
  PAW double counting   =     12741.82587617   -11476.22345381
  entropy T*S    EENTRO =         0.01094548
  eigenvalues    EBANDS =      1627.48380455
  atomic energy  EATOM  =     12697.67401269
  ---------------------------------------------------
  free energy    TOTEN  =      -364.02146956 eV

  energy without entropy =     -364.03241505  energy(sigma->0) =     -364.02511806


--------------------------------------------------------------------------------------------------------




--------------------------------------- Iteration      1(   4)  ---------------------------------------


    TRIAL :  cpu time   48.4846: real time   48.8157
    CORREC:  cpu time    0.0086: real time    0.0094
    --------------------------------------------
      LOOP:  cpu time   48.4940: real time   48.8290

 eigenvalue-minimisations  : 32104
 total energy-change (2. order) :-0.3660888E+02  (-0.3186894E+02)
 number of electron     270.0000000 magnetization      39.0000000
 augmentation part      270.0000000 magnetization      39.0000000

 Free energy of the ion-electron system (eV)
  ---------------------------------------------------
  alpha Z        PSCENC =       798.38614055
  Ewald energy   TEWEN  =    -12901.57693327
  -Hartree energ DENC   =     -2855.60785864
  -exchange      EXHF   =         0.00000000
  -V(xc)+E(xc)   XCENC  =      -995.99400327
  PAW double counting   =     12741.82587617   -11476.22345381
  entropy T*S    EENTRO =         0.02936764
  eigenvalues    EBANDS =      1590.85649980
  atomic energy  EATOM  =     12697.67401269
  ---------------------------------------------------
  free energy    TOTEN  =      -400.63035216 eV

  energy without entropy =     -400.65971979  energy(sigma->0) =     -400.64014137


--------------------------------------------------------------------------------------------------------




--------------------------------------- Iteration      1(   5)  ---------------------------------------


    TRIAL :  cpu time   48.8015: real time   49.1015
    CORREC:  cpu time    0.0086: real time    0.0095
    --------------------------------------------
      LOOP:  cpu time   48.8111: real time   49.1144

 eigenvalue-minimisations  : 32280
 total energy-change (2. order) :-0.3092684E+01  (-0.2957343E+01)
 number of electron     270.0000000 magnetization      39.0000000
 augmentation part      270.0000000 magnetization      39.0000000

 Free energy of the ion-electron system (eV)
  ---------------------------------------------------
  alpha Z        PSCENC =       798.38614055
  Ewald energy   TEWEN  =    -12901.57693327
  -Hartree energ DENC   =     -2855.60785864
  -exchange      EXHF   =         0.00000000
  -V(xc)+E(xc)   XCENC  =      -995.99400327
  PAW double counting   =     12741.82587617   -11476.22345381
  entropy T*S    EENTRO =         0.02817977
  eigenvalues    EBANDS =      1587.76500368
  atomic energy  EATOM  =     12697.67401269
  ---------------------------------------------------
  free energy    TOTEN  =      -403.72303614 eV

  energy without entropy =     -403.75121592  energy(sigma->0) =     -403.73242940


--------------------------------------------------------------------------------------------------------




--------------------------------------- Iteration      1(   6)  ---------------------------------------


    TRIAL :  cpu time   48.6110: real time   49.0472
    CORREC:  cpu time    0.0087: real time    0.0095
    --------------------------------------------
      LOOP:  cpu time   48.6209: real time   49.0607

 eigenvalue-minimisations  : 32200
 total energy-change (2. order) :-0.2328833E+00  (-0.2293647E+00)
 number of electron     270.0000000 magnetization      39.0000000
 augmentation part      270.0000000 magnetization      39.0000000

 Free energy of the ion-electron system (eV)
  ---------------------------------------------------
  alpha Z        PSCENC =       798.38614055
  Ewald energy   TEWEN  =    -12901.57693327
  -Hartree energ DENC   =     -2855.60785864
  -exchange      EXHF   =         0.00000000
  -V(xc)+E(xc)   XCENC  =      -995.99400327
  PAW double counting   =     12741.82587617   -11476.22345381
  entropy T*S    EENTRO =         0.02751533
  eigenvalues    EBANDS =      1587.53278484
  atomic energy  EATOM  =     12697.67401269
  ---------------------------------------------------
  free energy    TOTEN  =      -403.95591942 eV

  energy without entropy =     -403.98343475  energy(sigma->0) =     -403.96509120


--------------------------------------------------------------------------------------------------------




--------------------------------------- Iteration      1(   7)  ---------------------------------------


    TRIAL :  cpu time   48.8961: real time   49.3464
    CORREC:  cpu time    0.0086: real time    0.0095
    --------------------------------------------
      LOOP:  cpu time   48.9055: real time   49.3596

 eigenvalue-minimisations  : 32704
 total energy-change (2. order) :-0.2350034E-01  (-0.2333541E-01)
 number of electron     270.0000000 magnetization      39.0000000
 augmentation part      270.0000000 magnetization      39.0000000

 Free energy of the ion-electron system (eV)
  ---------------------------------------------------
  alpha Z        PSCENC =       798.38614055
  Ewald energy   TEWEN  =    -12901.57693327
  -Hartree energ DENC   =     -2855.60785864
  -exchange      EXHF   =         0.00000000
  -V(xc)+E(xc)   XCENC  =      -995.99400327
  PAW double counting   =     12741.82587617   -11476.22345381
  entropy T*S    EENTRO =         0.02740702
  eigenvalues    EBANDS =      1587.50939282
  atomic energy  EATOM  =     12697.67401269
  ---------------------------------------------------
  free energy    TOTEN  =      -403.97941976 eV

  energy without entropy =     -404.00682678  energy(sigma->0) =     -403.98855543


--------------------------------------------------------------------------------------------------------




--------------------------------------- Iteration      1(   8)  ---------------------------------------


    TRIAL :  cpu time   48.0093: real time   48.4119
    CORREC:  cpu time    0.0088: real time    0.0095
    CHARGE:  cpu time    1.6305: real time    1.6454
    --------------------------------------------
      LOOP:  cpu time   49.6495: real time   50.0707

 eigenvalue-minimisations  : 31808
 total energy-change (2. order) :-0.2080580E-02  (-0.2072611E-02)
 number of electron     269.9999995 magnetization      28.0843257
 augmentation part       64.2740669 magnetization      16.1488358

 Free energy of the ion-electron system (eV)
  ---------------------------------------------------
  alpha Z        PSCENC =       798.38614055
  Ewald energy   TEWEN  =    -12901.57693327
  -Hartree energ DENC   =     -2855.60785864
  -exchange      EXHF   =         0.00000000
  -V(xc)+E(xc)   XCENC  =      -995.99400327
  PAW double counting   =     12741.82587617   -11476.22345381
  entropy T*S    EENTRO =         0.02739933
  eigenvalues    EBANDS =      1587.50731993
  atomic energy  EATOM  =     12697.67401269
  ---------------------------------------------------
  free energy    TOTEN  =      -403.98150034 eV

  energy without entropy =     -404.00889967  energy(sigma->0) =     -403.99063345


--------------------------------------------------------------------------------------------------------




--------------------------------------- Iteration      1(   9)  ---------------------------------------


    POTLOK:  cpu time    0.3993: real time    0.3993
    SETDIJ:  cpu time    0.4913: real time    0.4914
    TRIAL :  cpu time   17.4930: real time   17.6464
    CORREC:  cpu time    5.4242: real time    5.4345
    CHARGE:  cpu time    1.5887: real time    1.5886
    --------------------------------------------
      LOOP:  cpu time   25.4012: real time   25.7815

 eigenvalue-minimisations  :     0
 total energy-change (2. order) : 0.2974598E+03  (-0.2175479E+03)
 number of electron     269.9999993 magnetization      29.8660507
 augmentation part       83.0879511 magnetization      19.7052443

 Free energy of the ion-electron system (eV)
  ---------------------------------------------------
  alpha Z        PSCENC =       798.38614055
  Ewald energy   TEWEN  =    -12901.57693327
  -Hartree energ DENC   =     -1275.33478058
  -exchange      EXHF   =         0.00000000
  -V(xc)+E(xc)   XCENC  =     -1041.65476505
  PAW double counting   =     19177.26511914   -17757.98608326
  entropy T*S    EENTRO =         0.02081211
  eigenvalues    EBANDS =       196.67823337
  atomic energy  EATOM  =     12697.67401269
  ---------------------------------------------------
  free energy    TOTEN  =      -106.52165707 eV

  energy without entropy =     -106.54246919  energy(sigma->0) =     -106.52859444


--------------------------------------------------------------------------------------------------------




--------------------------------------- Iteration      1(  10)  ---------------------------------------


    POTLOK:  cpu time    0.3933: real time    0.3933
    SETDIJ:  cpu time    0.4694: real time    0.4694
    TRIAL :  cpu time   16.7287: real time   16.8231
    CORREC:  cpu time    5.2976: real time    5.3286
    CHARGE:  cpu time    1.6627: real time    1.6754
    --------------------------------------------
      LOOP:  cpu time   24.5660: real time   24.7042

 eigenvalue-minimisations  :     0
 total energy-change (2. order) :-0.2142340E+03  (-0.1377203E+02)
 number of electron     269.9999993 magnetization      30.6458752
 augmentation part       87.9342926 magnetization      20.8635909

 Free energy of the ion-electron system (eV)
  ---------------------------------------------------
  alpha Z        PSCENC =       798.38614055
  Ewald energy   TEWEN  =    -12901.57693327
  -Hartree energ DENC   =     -2138.31735852
  -exchange      EXHF   =         0.00000000
  -V(xc)+E(xc)   XCENC  =     -1011.17506552
  PAW double counting   =     20837.64625833   -19606.44808757
  entropy T*S    EENTRO =         0.01797000
  eigenvalues    EBANDS =      1003.03458396
  atomic energy  EATOM  =     12697.67401269
  ---------------------------------------------------
  free energy    TOTEN  =      -320.75563723 eV

  energy without entropy =     -320.77360723  energy(sigma->0) =     -320.76162723


--------------------------------------------------------------------------------------------------------




--------------------------------------- Iteration      1(  11)  ---------------------------------------


    POTLOK:  cpu time    0.3937: real time    0.3937
    SETDIJ:  cpu time    0.4565: real time    0.4566
    TRIAL :  cpu time   17.6726: real time   17.8193
    CORREC:  cpu time    5.3256: real time    5.4073
    CHARGE:  cpu time    1.5854: real time    1.5854
    --------------------------------------------
      LOOP:  cpu time   25.4369: real time   25.6675

 eigenvalue-minimisations  :     0
 total energy-change (2. order) :-0.1355277E+02  (-0.1191905E+02)
 number of electron     269.9999992 magnetization      31.2896158
 augmentation part       88.5352408 magnetization      21.4533773

 Free energy of the ion-electron system (eV)
  ---------------------------------------------------
  alpha Z        PSCENC =       798.38614055
  Ewald energy   TEWEN  =    -12901.57693327
  -Hartree energ DENC   =     -2443.55079110
  -exchange      EXHF   =         0.00000000
  -V(xc)+E(xc)   XCENC  =     -1000.22072909
  PAW double counting   =     21891.13424542   -20704.85849092
  entropy T*S    EENTRO =         0.02404552
  eigenvalues    EBANDS =      1328.68616656
  atomic energy  EATOM  =     12697.67401269
  ---------------------------------------------------
  free energy    TOTEN  =      -334.30840916 eV

  energy without entropy =     -334.33245468  energy(sigma->0) =     -334.31642433


--------------------------------------------------------------------------------------------------------




--------------------------------------- Iteration      1(  12)  ---------------------------------------


    POTLOK:  cpu time    0.3939: real time    0.3938
    SETDIJ:  cpu time    0.4535: real time    0.4535
    TRIAL :  cpu time   16.8583: real time   16.9207
    CORREC:  cpu time    5.2382: real time    5.3216
    CHARGE:  cpu time    1.6168: real time    1.6168
    --------------------------------------------
      LOOP:  cpu time   24.5738: real time   24.7199

 eigenvalue-minimisations  :     0
 total energy-change (2. order) :-0.1205461E+02  (-0.6968159E+01)
 number of electron     269.9999993 magnetization      31.2811312
 augmentation part       86.9807258 magnetization      21.5018471

 Free energy of the ion-electron system (eV)
  ---------------------------------------------------
  alpha Z        PSCENC =       798.38614055
  Ewald energy   TEWEN  =    -12901.57693327
  -Hartree energ DENC   =     -2567.94631069
  -exchange      EXHF   =         0.00000000
  -V(xc)+E(xc)   XCENC  =      -996.59732064
  PAW double counting   =     21538.44509760   -20335.07956210
  entropy T*S    EENTRO =         0.00331853
  eigenvalues    EBANDS =      1420.30780941
  atomic energy  EATOM  =     12697.67401269
  ---------------------------------------------------
  free energy    TOTEN  =      -346.36302093 eV

  energy without entropy =     -346.36633946  energy(sigma->0) =     -346.36412710


--------------------------------------------------------------------------------------------------------




--------------------------------------- Iteration      1(  13)  ---------------------------------------


    POTLOK:  cpu time    0.3939: real time    0.3940
    SETDIJ:  cpu time    0.5253: real time    0.5253
    TRIAL :  cpu time   17.3693: real time   17.6723
    CORREC:  cpu time    5.4230: real time    5.4630
    CHARGE:  cpu time    2.2471: real time    2.2470
    --------------------------------------------
      LOOP:  cpu time   25.9615: real time   26.3061

 eigenvalue-minimisations  :     0
 total energy-change (2. order) :-0.6872862E+01  (-0.1097269E+01)
 number of electron     269.9999993 magnetization      31.2850918
 augmentation part       86.0038770 magnetization      21.3392848

 Free energy of the ion-electron system (eV)
  ---------------------------------------------------
  alpha Z        PSCENC =       798.38614055
  Ewald energy   TEWEN  =    -12901.57693327
  -Hartree energ DENC   =     -2538.16108322
  -exchange      EXHF   =         0.00000000
  -V(xc)+E(xc)   XCENC  =      -998.25523730
  PAW double counting   =     21181.01387692   -19943.31407954
  entropy T*S    EENTRO =        -0.00053659
  eigenvalues    EBANDS =      1350.99410171
  atomic energy  EATOM  =     12697.67401269
  ---------------------------------------------------
  free energy    TOTEN  =      -353.23588294 eV

  energy without entropy =     -353.23534635  energy(sigma->0) =     -353.23570408


--------------------------------------------------------------------------------------------------------




--------------------------------------- Iteration      1(  14)  ---------------------------------------


    POTLOK:  cpu time    0.3941: real time    0.3941
    SETDIJ:  cpu time    0.4416: real time    0.4623
    TRIAL :  cpu time   16.9185: real time   17.0132
    CORREC:  cpu time    5.3345: real time    5.3508
    CHARGE:  cpu time    1.5791: real time    1.5791
    --------------------------------------------
      LOOP:  cpu time   24.6714: real time   24.8042

 eigenvalue-minimisations  :     0
 total energy-change (2. order) :-0.1091433E+01  (-0.8748471E+00)
 number of electron     269.9999992 magnetization      31.4133979
 augmentation part       85.9589137 magnetization      21.2761491

 Free energy of the ion-electron system (eV)
  ---------------------------------------------------
  alpha Z        PSCENC =       798.38614055
  Ewald energy   TEWEN  =    -12901.57693327
  -Hartree energ DENC   =     -2482.30179309
  -exchange      EXHF   =         0.00000000
  -V(xc)+E(xc)   XCENC  =     -1000.24947153
  PAW double counting   =     20676.38716018   -19423.74402095
  entropy T*S    EENTRO =         0.00481161
  eigenvalues    EBANDS =      1281.09812618
  atomic energy  EATOM  =     12697.67401269
  ---------------------------------------------------
  free energy    TOTEN  =      -354.32731584 eV

  energy without entropy =     -354.33212746  energy(sigma->0) =     -354.32891972


--------------------------------------------------------------------------------------------------------




--------------------------------------- Iteration      1(  15)  ---------------------------------------


    POTLOK:  cpu time    0.3932: real time    0.3932
    SETDIJ:  cpu time    0.4324: real time    0.5009
    TRIAL :  cpu time   16.7564: real time   16.9070
    CORREC:  cpu time    5.3213: real time    5.3415
    CHARGE:  cpu time    1.5819: real time    1.6012
    --------------------------------------------
      LOOP:  cpu time   24.4960: real time   24.7559

 eigenvalue-minimisations  :     0
 total energy-change (2. order) :-0.8684422E+00  (-0.7401377E+00)
 number of electron     269.9999992 magnetization      31.3817166
 augmentation part       86.6710832 magnetization      21.3030680

 Free energy of the ion-electron system (eV)
  ---------------------------------------------------
  alpha Z        PSCENC =       798.38614055
  Ewald energy   TEWEN  =    -12901.57693327
  -Hartree energ DENC   =     -2466.74343729
  -exchange      EXHF   =         0.00000000
  -V(xc)+E(xc)   XCENC  =     -1000.65419392
  PAW double counting   =     20110.12244948   -18853.33976263
  entropy T*S    EENTRO =         0.00001813
  eigenvalues    EBANDS =      1260.93115471
  atomic energy  EATOM  =     12697.67401269
  ---------------------------------------------------
  free energy    TOTEN  =      -355.19575807 eV

  energy without entropy =     -355.19577619  energy(sigma->0) =     -355.19576411


--------------------------------------------------------------------------------------------------------




--------------------------------------- Iteration      1(  16)  ---------------------------------------


    POTLOK:  cpu time    0.3929: real time    0.3932
    SETDIJ:  cpu time    1.1982: real time    1.2205
    TRIAL :  cpu time   17.5222: real time   17.7114
    CORREC:  cpu time    5.4175: real time    5.4215
    CHARGE:  cpu time    1.5938: real time    1.5938
    --------------------------------------------
      LOOP:  cpu time   26.3609: real time   26.5809

 eigenvalue-minimisations  :     0
 total energy-change (2. order) :-0.7386468E+00  (-0.2312900E+00)
 number of electron     269.9999992 magnetization      31.3959050
 augmentation part       87.1921871 magnetization      21.4058256

 Free energy of the ion-electron system (eV)
  ---------------------------------------------------
  alpha Z        PSCENC =       798.38614055
  Ewald energy   TEWEN  =    -12901.57693327
  -Hartree energ DENC   =     -2489.03699186
  -exchange      EXHF   =         0.00000000
  -V(xc)+E(xc)   XCENC  =      -999.59482329
  PAW double counting   =     19681.25987536   -18429.66831617
  entropy T*S    EENTRO =        -0.00154286
  eigenvalues    EBANDS =      1286.62261303
  atomic energy  EATOM  =     12697.67401269
  ---------------------------------------------------
  free energy    TOTEN  =      -355.93440483 eV

  energy without entropy =     -355.93286196  energy(sigma->0) =     -355.93389054


--------------------------------------------------------------------------------------------------------




--------------------------------------- Iteration      1(  17)  ---------------------------------------


    POTLOK:  cpu time    0.4433: real time    0.4525
    SETDIJ:  cpu time    0.4452: real time    0.4452
    TRIAL :  cpu time   16.7165: real time   16.8326
    CORREC:  cpu time    5.3442: real time    5.3676
    CHARGE:  cpu time    1.5958: real time    1.6073
    --------------------------------------------
      LOOP:  cpu time   24.5497: real time   24.7100

 eigenvalue-minimisations  :     0
 total energy-change (2. order) :-0.2319522E+00  (-0.2187536E+00)
 number of electron     269.9999992 magnetization      31.4331227
 augmentation part       87.3329900 magnetization      21.5921127

 Free energy of the ion-electron system (eV)
  ---------------------------------------------------
  alpha Z        PSCENC =       798.38614055
  Ewald energy   TEWEN  =    -12901.57693327
  -Hartree energ DENC   =     -2511.80546983
  -exchange      EXHF   =         0.00000000
  -V(xc)+E(xc)   XCENC  =      -998.57001300
  PAW double counting   =     19593.51251363   -18347.24835091
  entropy T*S    EENTRO =        -0.00015489
  eigenvalues    EBANDS =      1313.46328594
  atomic energy  EATOM  =     12697.67401269
  ---------------------------------------------------
  free energy    TOTEN  =      -356.16635706 eV

  energy without entropy =     -356.16620218  energy(sigma->0) =     -356.16630543


--------------------------------------------------------------------------------------------------------




--------------------------------------- Iteration      1(  18)  ---------------------------------------


    POTLOK:  cpu time    0.3951: real time    0.3951
    SETDIJ:  cpu time    0.4778: real time    0.4778
    TRIAL :  cpu time   18.2749: real time   18.4568
    CORREC:  cpu time    5.2883: real time    5.3059
    CHARGE:  cpu time    1.5730: real time    1.6561
    --------------------------------------------
      LOOP:  cpu time   26.0104: real time   26.2962

 eigenvalue-minimisations  :     0
 total energy-change (2. order) :-0.2187152E+00  (-0.1166620E+00)
 number of electron     269.9999992 magnetization      31.4045124
 augmentation part       87.1865270 magnetization      21.6829806

 Free energy of the ion-electron system (eV)
  ---------------------------------------------------
  alpha Z        PSCENC =       798.38614055
  Ewald energy   TEWEN  =    -12901.57693327
  -Hartree energ DENC   =     -2516.57090560
  -exchange      EXHF   =         0.00000000
  -V(xc)+E(xc)   XCENC  =      -998.03226723
  PAW double counting   =     19540.93751587   -18296.26378655
  entropy T*S    EENTRO =        -0.00242020
  eigenvalues    EBANDS =      1319.06130621
  atomic energy  EATOM  =     12697.67401269
  ---------------------------------------------------
  free energy    TOTEN  =      -356.38507221 eV

  energy without entropy =     -356.38265201  energy(sigma->0) =     -356.38426548


--------------------------------------------------------------------------------------------------------




--------------------------------------- Iteration      1(  19)  ---------------------------------------


    POTLOK:  cpu time    0.3936: real time    0.3936
    SETDIJ:  cpu time    0.4828: real time    0.4828
    TRIAL :  cpu time   16.9214: real time   16.9437
    CORREC:  cpu time    5.2962: real time    5.4003
    CHARGE:  cpu time    1.5706: real time    1.5728
    --------------------------------------------
      LOOP:  cpu time   24.6678: real time   24.7982

 eigenvalue-minimisations  :     0
 total energy-change (2. order) :-0.1158852E+00  (-0.5794037E-01)
 number of electron     269.9999992 magnetization      31.4549056
 augmentation part       86.9116011 magnetization      21.7463503

 Free energy of the ion-electron system (eV)
  ---------------------------------------------------
  alpha Z        PSCENC =       798.38614055
  Ewald energy   TEWEN  =    -12901.57693327
  -Hartree energ DENC   =     -2508.10318081
  -exchange      EXHF   =         0.00000000
  -V(xc)+E(xc)   XCENC  =      -998.11076604
  PAW double counting   =     19515.16383260   -18269.03409823
  entropy T*S    EENTRO =        -0.00137713
  eigenvalues    EBANDS =      1309.10245530
  atomic energy  EATOM  =     12697.67401269
  ---------------------------------------------------
  free energy    TOTEN  =      -356.50095741 eV

  energy without entropy =     -356.49958028  energy(sigma->0) =     -356.50049836


--------------------------------------------------------------------------------------------------------




--------------------------------------- Iteration      1(  20)  ---------------------------------------


    POTLOK:  cpu time    0.3932: real time    0.4073
    SETDIJ:  cpu time    0.4700: real time    0.4700
    TRIAL :  cpu time   16.9181: real time   17.0374
    CORREC:  cpu time    6.0746: real time    6.1173
    CHARGE:  cpu time    1.5903: real time    1.6258
    --------------------------------------------
      LOOP:  cpu time   25.4529: real time   25.6657

 eigenvalue-minimisations  :     0
 total energy-change (2. order) :-0.5788423E-01  (-0.5021349E-01)
 number of electron     269.9999992 magnetization      31.4905719
 augmentation part       86.8278008 magnetization      21.8320856

 Free energy of the ion-electron system (eV)
  ---------------------------------------------------
  alpha Z        PSCENC =       798.38614055
  Ewald energy   TEWEN  =    -12901.57693327
  -Hartree energ DENC   =     -2494.62836977
  -exchange      EXHF   =         0.00000000
  -V(xc)+E(xc)   XCENC  =      -998.45026861
  PAW double counting   =     19497.69030891   -18248.76763343
  entropy T*S    EENTRO =        -0.00141470
  eigenvalues    EBANDS =      1293.11527843
  atomic energy  EATOM  =     12697.67401269
  ---------------------------------------------------
  free energy    TOTEN  =      -356.55884164 eV

  energy without entropy =     -356.55742693  energy(sigma->0) =     -356.55837007


--------------------------------------------------------------------------------------------------------




--------------------------------------- Iteration      1(  21)  ---------------------------------------


    POTLOK:  cpu time    0.3961: real time    0.4123
    SETDIJ:  cpu time    1.1803: real time    1.1804
    TRIAL :  cpu time   16.8914: real time   16.9869
    CORREC:  cpu time    5.3404: real time    5.3475
    CHARGE:  cpu time    1.5886: real time    1.5956
    --------------------------------------------
      LOOP:  cpu time   25.3981: real time   25.5254

 eigenvalue-minimisations  :     0
 total energy-change (2. order) :-0.5021548E-01  (-0.3945088E-01)
 number of electron     269.9999992 magnetization      31.5314727
 augmentation part       86.9075515 magnetization      21.9107227

 Free energy of the ion-electron system (eV)
  ---------------------------------------------------
  alpha Z        PSCENC =       798.38614055
  Ewald energy   TEWEN  =    -12901.57693327
  -Hartree energ DENC   =     -2492.67433107
  -exchange      EXHF   =         0.00000000
  -V(xc)+E(xc)   XCENC  =      -998.36390105
  PAW double counting   =     19504.74428570   -18255.39994839
  entropy T*S    EENTRO =        -0.00175751
  eigenvalues    EBANDS =      1290.60303242
  atomic energy  EATOM  =     12697.67401269
  ---------------------------------------------------
  free energy    TOTEN  =      -356.60905712 eV

  energy without entropy =     -356.60729961  energy(sigma->0) =     -356.60847128


--------------------------------------------------------------------------------------------------------




--------------------------------------- Iteration      1(  22)  ---------------------------------------


    POTLOK:  cpu time    0.3945: real time    0.3945
    SETDIJ:  cpu time    0.4566: real time    0.4566
    TRIAL :  cpu time   16.6704: real time   16.8607
    CORREC:  cpu time    5.2915: real time    5.3104
    CHARGE:  cpu time    1.5880: real time    1.6410
    --------------------------------------------
      LOOP:  cpu time   24.4025: real time   24.6663

 eigenvalue-minimisations  :     0
 total energy-change (2. order) :-0.3944949E-01  (-0.1089753E-01)
 number of electron     269.9999992 magnetization      31.5648146
 augmentation part       86.9733912 magnetization      21.9373882

 Free energy of the ion-electron system (eV)
  ---------------------------------------------------
  alpha Z        PSCENC =       798.38614055
  Ewald energy   TEWEN  =    -12901.57693327
  -Hartree energ DENC   =     -2499.15441427
  -exchange      EXHF   =         0.00000000
  -V(xc)+E(xc)   XCENC  =      -997.99268214
  PAW double counting   =     19526.03879517   -18278.07082485
  entropy T*S    EENTRO =        -0.00090634
  eigenvalues    EBANDS =      1298.04915702
  atomic energy  EATOM  =     12697.67401269
  ---------------------------------------------------
  free energy    TOTEN  =      -356.64850661 eV

  energy without entropy =     -356.64760027  energy(sigma->0) =     -356.64820449


--------------------------------------------------------------------------------------------------------




--------------------------------------- Iteration      1(  23)  ---------------------------------------


    POTLOK:  cpu time    0.3939: real time    0.3938
    SETDIJ:  cpu time    0.4614: real time    0.4711
    TRIAL :  cpu time   17.6136: real time   17.7323
    CORREC:  cpu time    5.3588: real time    5.4186
    CHARGE:  cpu time    1.6086: real time    1.6085
    --------------------------------------------
      LOOP:  cpu time   25.4385: real time   25.6273

 eigenvalue-minimisations  :     0
 total energy-change (2. order) :-0.1089340E-01  (-0.9635798E-02)
 number of electron     269.9999992 magnetization      31.5750687
 augmentation part       87.0128755 magnetization      21.9544656

 Free energy of the ion-electron system (eV)
  ---------------------------------------------------
  alpha Z        PSCENC =       798.38614055
  Ewald energy   TEWEN  =    -12901.57693327
  -Hartree energ DENC   =     -2503.16520382
  -exchange      EXHF   =         0.00000000
  -V(xc)+E(xc)   XCENC  =      -997.79911386
  PAW double counting   =     19532.90857315   -18285.78403850
  entropy T*S    EENTRO =        -0.00112954
  eigenvalues    EBANDS =      1302.69806939
  atomic energy  EATOM  =     12697.67401269
  ---------------------------------------------------
  free energy    TOTEN  =      -356.65940001 eV

  energy without entropy =     -356.65827047  energy(sigma->0) =     -356.65902350


--------------------------------------------------------------------------------------------------------




--------------------------------------- Iteration      1(  24)  ---------------------------------------


    POTLOK:  cpu time    0.3937: real time    0.3938
[...]
   45       -0.025  -0.027  -2.116  -2.168
   46        0.018   0.022   2.380   2.420
   47        0.018   0.022   2.375   2.416
   48       -0.018  -0.016  -2.325  -2.360
   49        0.018   0.021   2.375   2.415
   50        0.018   0.021   2.382   2.421
   51       -0.018  -0.016  -2.324  -2.358
   52        0.020   0.018   2.335   2.373
   53        0.020   0.018   2.333   2.371
   54        0.025   0.021   2.392   2.438
--------------------------------------------------
tot         -0.009  -0.168  31.479  31.302
 
    FORLOC:  cpu time    0.0592: real time    0.0592
    FORNL :  cpu time   25.9826: real time   26.1931
    STRESS:  cpu time   35.5184: real time   35.7665
    FORCOR:  cpu time    0.4432: real time    0.4517
    OFIELD:  cpu time    0.0022: real time    0.0022

  FORCE on cell =-STRESS in cart. coord.  units (eV):
  Direction    XX          YY          ZZ          XY          YZ          ZX
  --------------------------------------------------------------------------------------
  Alpha Z   798.38614   798.38614   798.38614
  Ewald   -4053.61603 -4053.61603 -4794.40593    -0.00000    -0.00000    -0.00000
  Hartree  1085.34398  1082.57761   333.90278    -0.00000    -0.00000    -0.00000
  E(xc)   -1142.13452 -1141.67530 -1140.27802    -0.00000     0.00000    -0.00000
  Local     366.98205   373.22525  1903.11453    -0.00000     0.00000     0.00000
  n-local  -171.08188  -169.81959  -175.13004    -0.25478    -0.13985    -0.14791
  augment   785.59534   783.58774   768.20118     0.00000     0.00001     0.00001
  Kinetic  2336.58903  2332.91965  2310.49663    -1.05536    -1.66840    -1.52710
  Fock        0.00000     0.00000     0.00000     0.00000     0.00000     0.00000
  -------------------------------------------------------------------------------------
  Total       6.06412     5.58548     4.28726     0.00000     0.00000     0.00000
  in kB      13.68592    12.60571     9.67580     0.00000     0.00000     0.00000
  external pressure =       11.99 kB  Pullay stress =        0.00 kB


 VOLUME and BASIS-vectors are now :
 -----------------------------------------------------------------------------
  energy-cutoff  :      404.80
  volume of cell :      709.91
      direct lattice vectors                 reciprocal lattice vectors
     8.250148166  0.000000000  0.000000000     0.121209944  0.000000000  0.000000000
     0.000000000  8.250148166  0.000000000     0.000000000  0.121209944  0.000000000
     0.000000000  0.000000000 10.429911392     0.000000000  0.000000000  0.095878092

  length of vectors
     8.250148166  8.250148166 10.429911392     0.121209944  0.121209944  0.095878092


 FORCES acting on ions:
    Electron-Ion                     Ewald-Force                    Non-Local-Force
 -----------------------------------------------------------------------------------------------
   -.254E-10 0.120E+00 -.528E-01   -.239E-08 -.239E-08 -.210E-08   0.000E+00 -.210E+00 0.904E-01
   -.254E-10 -.440E-02 0.484E-06   -.239E-08 -.239E-08 0.171E-08   0.000E+00 0.336E-01 0.000E+00
   -.254E-10 0.120E+00 0.528E-01   -.239E-08 -.239E-08 0.861E-08   0.434E-18 -.210E+00 -.904E-01
   -.255E-10 0.372E-09 -.854E-01   -.239E-08 -.802E-09 -.210E-08   0.000E+00 0.108E-18 0.560E-01
   -.254E-10 0.373E-09 0.480E-06   -.239E-08 -.802E-09 0.171E-08   0.000E+00 0.000E+00 0.000E+00
   -.255E-10 0.372E-09 0.854E-01   -.239E-08 -.802E-09 0.861E-08   0.000E+00 0.108E-18 -.560E-01
   -.254E-10 -.120E+00 -.528E-01   -.239E-08 0.631E-08 -.210E-08   0.000E+00 0.210E+00 0.904E-01
   -.254E-10 0.440E-02 0.484E-06   -.239E-08 0.631E-08 0.171E-08   0.000E+00 -.336E-01 0.000E+00
   -.254E-10 -.120E+00 0.528E-01   -.239E-08 0.631E-08 0.861E-08   -.434E-18 0.210E+00 -.904E-01
   0.172E+00 0.103E+00 -.490E-01   -.802E-09 -.239E-08 -.210E-08   -.917E-01 -.104E+00 0.442E-01
   0.102E-01 0.158E-02 0.482E-06   -.802E-09 -.239E-08 0.171E-08   0.127E-01 -.479E-02 0.000E+00
   0.172E+00 0.103E+00 0.490E-01   -.803E-09 -.239E-08 0.861E-08   -.917E-01 -.104E+00 -.442E-01
   -.923E-02 0.373E-09 -.127E+00   -.802E-09 -.802E-09 -.210E-08   -.541E-02 0.000E+00 0.193E-01
   0.131E-01 0.373E-09 0.479E-06   -.802E-09 -.802E-09 0.171E-08   -.976E-02 0.000E+00 0.000E+00
   -.923E-02 0.373E-09 0.127E+00   -.803E-09 -.802E-09 0.861E-08   -.541E-02 0.190E-18 -.193E-01
   0.172E+00 -.103E+00 -.490E-01   -.802E-09 0.631E-08 -.210E-08   -.917E-01 0.104E+00 0.442E-01
   0.102E-01 -.158E-02 0.482E-06   -.802E-09 0.631E-08 0.171E-08   0.127E-01 0.479E-02 0.163E-18
   0.172E+00 -.103E+00 0.490E-01   -.803E-09 0.631E-08 0.861E-08   -.917E-01 0.104E+00 -.442E-01
   -.172E+00 0.103E+00 -.490E-01   0.631E-08 -.239E-08 -.210E-08   0.917E-01 -.104E+00 0.442E-01
   -.102E-01 0.158E-02 0.482E-06   0.631E-08 -.239E-08 0.171E-08   -.127E-01 -.479E-02 0.000E+00
   -.172E+00 0.103E+00 0.490E-01   0.631E-08 -.239E-08 0.861E-08   0.917E-01 -.104E+00 -.442E-01
   0.923E-02 0.373E-09 -.127E+00   0.631E-08 -.802E-09 -.210E-08   0.541E-02 -.257E-18 0.193E-01
   -.131E-01 0.373E-09 0.479E-06   0.631E-08 -.802E-09 0.171E-08   0.976E-02 0.000E+00 0.000E+00
   0.923E-02 0.373E-09 0.127E+00   0.631E-08 -.802E-09 0.861E-08   0.541E-02 0.000E+00 -.193E-01
   -.172E+00 -.103E+00 -.490E-01   0.631E-08 0.631E-08 -.210E-08   0.917E-01 0.104E+00 0.442E-01
   -.102E-01 -.158E-02 0.482E-06   0.631E-08 0.631E-08 0.171E-08   -.127E-01 0.479E-02 0.163E-18
   -.172E+00 -.103E+00 0.490E-01   0.631E-08 0.631E-08 0.861E-08   0.917E-01 0.104E+00 -.442E-01
   -.403E-01 0.602E-02 -.287E-01   -.169E-07 -.169E-07 -.180E-07   0.277E-01 0.494E-02 0.139E-02
   -.403E-01 0.602E-02 0.287E-01   -.169E-07 -.169E-07 -.170E-08   0.277E-01 0.494E-02 -.139E-02
   0.465E-01 0.247E+00 -.252E-05   -.169E-07 -.169E-07 0.115E-07   -.396E-01 -.903E-01 0.163E-18
   -.403E-01 -.602E-02 -.287E-01   -.169E-07 0.802E-09 -.180E-07   0.277E-01 -.494E-02 0.139E-02
   -.403E-01 -.602E-02 0.287E-01   -.169E-07 0.802E-09 -.170E-08   0.277E-01 -.494E-02 -.139E-02
   0.465E-01 -.247E+00 -.252E-05   -.169E-07 0.802E-09 0.115E-07   -.396E-01 0.903E-01 0.000E+00
   -.119E-01 -.605E-08 -.290E+00   -.169E-07 0.130E-07 -.180E-07   0.976E-02 0.000E+00 0.307E+00
   -.119E-01 -.605E-08 0.290E+00   -.169E-07 0.130E-07 -.170E-08   0.976E-02 0.108E-18 -.307E+00
   -.512E+00 -.605E-08 -.271E-05   -.169E-07 0.130E-07 0.115E-07   0.167E+00 0.434E-18 0.000E+00
   0.870E-11 -.894E-01 -.356E-01   0.802E-09 -.169E-07 -.180E-07   0.217E-18 0.541E-01 -.127E-01
   0.869E-11 -.894E-01 0.356E-01   0.802E-09 -.169E-07 -.170E-08   0.217E-18 0.541E-01 0.127E-01
   0.876E-11 -.193E+00 -.247E-05   0.802E-09 -.169E-07 0.115E-07   -.434E-18 0.197E+00 0.000E+00
   0.870E-11 0.894E-01 -.356E-01   0.802E-09 0.802E-09 -.180E-07   0.217E-18 -.541E-01 -.127E-01
   0.870E-11 0.894E-01 0.356E-01   0.802E-09 0.802E-09 -.170E-08   0.271E-19 -.541E-01 0.127E-01
   0.876E-11 0.193E+00 -.247E-05   0.802E-09 0.802E-09 0.115E-07   -.434E-18 -.197E+00 0.867E-18
   0.873E-11 -.605E-08 0.900E-01   0.802E-09 0.130E-07 -.180E-07   0.000E+00 0.867E-18 -.125E+00
   0.872E-11 -.605E-08 -.900E-01   0.802E-09 0.130E-07 -.170E-08   0.000E+00 -.867E-18 0.125E+00
   0.884E-11 -.605E-08 -.252E-05   0.802E-09 0.130E-07 0.115E-07   0.000E+00 0.000E+00 0.000E+00
   0.403E-01 0.602E-02 -.287E-01   0.130E-07 -.169E-07 -.180E-07   -.277E-01 0.494E-02 0.139E-02
   0.403E-01 0.602E-02 0.287E-01   0.130E-07 -.169E-07 -.170E-08   -.277E-01 0.494E-02 -.139E-02
   -.465E-01 0.247E+00 -.252E-05   0.130E-07 -.169E-07 0.115E-07   0.396E-01 -.903E-01 0.000E+00
   0.403E-01 -.602E-02 -.287E-01   0.130E-07 0.802E-09 -.180E-07   -.277E-01 -.494E-02 0.139E-02
   0.403E-01 -.602E-02 0.287E-01   0.130E-07 0.802E-09 -.170E-08   -.277E-01 -.494E-02 -.139E-02
   -.465E-01 -.247E+00 -.252E-05   0.130E-07 0.802E-09 0.115E-07   0.396E-01 0.903E-01 -.813E-18
   0.119E-01 -.605E-08 -.290E+00   0.130E-07 0.130E-07 -.180E-07   -.976E-02 0.108E-18 0.307E+00
   0.119E-01 -.605E-08 0.290E+00   0.130E-07 0.130E-07 -.170E-08   -.976E-02 0.217E-18 -.307E+00
   0.512E+00 -.605E-08 -.271E-05   0.130E-07 0.130E-07 0.115E-07   -.167E+00 0.434E-18 0.000E+00
 -----------------------------------------------------------------------------------------------
   -.449E-07 -.363E-07 -.206E-04   -.614E-13 -.142E-13 0.128E-13   0.000E+00 0.759E-18 -.555E-16
 
 
 POSITION                                       TOTAL-FORCE (eV/Angst)
 -----------------------------------------------------------------------------------
      0.00000      0.00000      0.00000         0.000000     -0.071869      0.028589
      0.00000      0.00000      3.47664         0.000000      0.027066      0.000000
      0.00000      0.00000      6.95327         0.000000     -0.071869     -0.028589
      0.00000      2.75005      0.00000         0.000000     -0.000000     -0.034770
      0.00000      2.75005      3.47664         0.000000     -0.000000      0.000000
      0.00000      2.75005      6.95327         0.000000     -0.000000      0.034770
      0.00000      5.50010      0.00000         0.000000      0.071869      0.028589
      0.00000      5.50010      3.47664         0.000000     -0.027066      0.000000
      0.00000      5.50010      6.95327         0.000000      0.071869     -0.028589
      2.75005      0.00000      0.00000         0.088250      0.006695     -0.009747
      2.75005      0.00000      3.47664         0.022154     -0.002850     -0.000000
      2.75005      0.00000      6.95327         0.088250      0.006695      0.009747
      2.75005      2.75005      0.00000        -0.014604     -0.000000     -0.110216
      2.75005      2.75005      3.47664         0.003815     -0.000000     -0.000000
      2.75005      2.75005      6.95327        -0.014604     -0.000000      0.110216
      2.75005      5.50010      0.00000         0.088250     -0.006695     -0.009747
      2.75005      5.50010      3.47664         0.022154      0.002850      0.000000
      2.75005      5.50010      6.95327         0.088250     -0.006695      0.009747
      5.50010      0.00000      0.00000        -0.088250      0.006695     -0.009747
      5.50010      0.00000      3.47664        -0.022154     -0.002850     -0.000000
      5.50010      0.00000      6.95327        -0.088250      0.006695      0.009747
      5.50010      2.75005      0.00000         0.014604     -0.000000     -0.110216
      5.50010      2.75005      3.47664        -0.003815     -0.000000     -0.000000
      5.50010      2.75005      6.95327         0.014604     -0.000000      0.110216
      5.50010      5.50010      0.00000        -0.088250     -0.006695     -0.009747
      5.50010      5.50010      3.47664        -0.022154      0.002850      0.000000
      5.50010      5.50010      6.95327        -0.088250     -0.006695      0.009747
      1.37502      1.37502      1.73832        -0.013068      0.012264     -0.020087
      1.37502      1.37502      5.21496        -0.013068      0.012264      0.020087
      1.37502      1.37502      8.69159         0.008227      0.155116      0.000000
      1.37502      4.12507      1.73832        -0.013068     -0.012264     -0.020087
      1.37502      4.12507      5.21496        -0.013068     -0.012264      0.020087
      1.37502      4.12507      8.69159         0.008227     -0.155116      0.000000
      1.37502      6.87512      1.73832        -0.002511     -0.000000      0.014590
      1.37502      6.87512      5.21496        -0.002511     -0.000000     -0.014590
      1.37502      6.87512      8.69159        -0.356832     -0.000000     -0.000000
      4.12507      1.37502      1.73832         0.000000     -0.036011     -0.041554
      4.12507      1.37502      5.21496         0.000000     -0.036011      0.041554
      4.12507      1.37502      8.69159         0.000000      0.002618      0.000000
      4.12507      4.12507      1.73832         0.000000      0.036011     -0.041554
      4.12507      4.12507      5.21496         0.000000      0.036011      0.041554
      4.12507      4.12507      8.69159         0.000000     -0.002618      0.000000
      4.12507      6.87512      1.73832         0.000000     -0.000000     -0.022580
      4.12507      6.87512      5.21496         0.000000     -0.000000      0.022580
      4.12507      6.87512      8.69159         0.000000     -0.000000      0.000000
      6.87512      1.37502      1.73832         0.013068      0.012264     -0.020087
      6.87512      1.37502      5.21496         0.013068      0.012264      0.020087
      6.87512      1.37502      8.69159        -0.008227      0.155116      0.000000
      6.87512      4.12507      1.73832         0.013068     -0.012264     -0.020087
      6.87512      4.12507      5.21496         0.013068     -0.012264      0.020087
      6.87512      4.12507      8.69159        -0.008227     -0.155116      0.000000
      6.87512      6.87512      1.73832         0.002511     -0.000000      0.014590
      6.87512      6.87512      5.21496         0.002511     -0.000000     -0.014590
      6.87512      6.87512      8.69159         0.356832     -0.000000     -0.000000
 -----------------------------------------------------------------------------------
    total drift:                               -0.000000     -0.000000     -0.000021


--------------------------------------------------------------------------------------------------------



  FREE ENERGIE OF THE ION-ELECTRON SYSTEM (eV)
  ---------------------------------------------------
  free  energy   TOTEN  =      -356.69915135 eV

  energy  without entropy=     -356.70355402  energy(sigma->0) =     -356.70061891
 


--------------------------------------------------------------------------------------------------------


    POTLOK:  cpu time    1.7456: real time    1.7508


--------------------------------------------------------------------------------------------------------


     LOOP+:  cpu time 1782.7890: real time 1798.0027
    4ORBIT:  cpu time    0.0000: real time    0.0000
 


 total charge     
 
# of ion       s       p       d       tot
------------------------------------------
    1        0.405   0.428   0.000   0.834
    2        0.405   0.429   0.000   0.834
    3        0.405   0.428   0.000   0.833
    4        0.405   0.426   0.000   0.831
    5        0.403   0.430   0.000   0.834
    6        0.405   0.426   0.000   0.831
    7        0.405   0.428   0.000   0.833
    8        0.405   0.429   0.000   0.834
    9        0.405   0.428   0.000   0.834
   10        0.405   0.428   0.000   0.834
   11        0.404   0.430   0.000   0.834
   12        0.405   0.428   0.000   0.833
   13        0.405   0.426   0.000   0.831
   14        0.404   0.430   0.000   0.834
   15        0.405   0.426   0.000   0.831
   16        0.405   0.428   0.000   0.833
   17        0.404   0.429   0.000   0.833
   18        0.405   0.428   0.000   0.833
   19        0.405   0.428   0.000   0.833
   20        0.404   0.429   0.000   0.833
   21        0.405   0.428   0.000   0.833
   22        0.405   0.426   0.000   0.831
   23        0.404   0.430   0.000   0.834
   24        0.405   0.426   0.000   0.831
   25        0.405   0.428   0.000   0.833
   26        0.404   0.430   0.000   0.834
   27        0.405   0.428   0.000   0.834
   28        0.333   0.352   5.134   5.819
   29        0.332   0.352   5.133   5.817
   30        0.335   0.353   5.138   5.827
   31        0.332   0.352   5.135   5.819
   32        0.333   0.353   5.137   5.823
   33        0.335   0.353   5.124   5.812
   34        0.333   0.350   5.144   5.827
   35        0.333   0.350   5.138   5.820
   36        0.337   0.356   5.120   5.814
   37        0.333   0.350   5.140   5.823
   38        0.333   0.350   5.139   5.822
   39        0.332   0.354   5.135   5.821
   40        0.333   0.350   5.139   5.822
   41        0.333   0.350   5.140   5.823
   42        0.332   0.354   5.135   5.821
   43        0.333   0.353   5.132   5.818
   44        0.333   0.353   5.132   5.818
   45        0.332   0.355   5.139   5.827
   46        0.333   0.353   5.137   5.823
   47        0.332   0.352   5.135   5.819
   48        0.335   0.353   5.124   5.812
   49        0.332   0.352   5.133   5.817
   50        0.333   0.352   5.134   5.819
   51        0.335   0.353   5.138   5.827
   52        0.333   0.350   5.138   5.820
   53        0.333   0.350   5.144   5.827
   54        0.337   0.356   5.120   5.814
--------------------------------------------------
tot         19.929  21.072 138.639 179.640
 


 magnetization (x)
 
# of ion       s       p       d       tot
------------------------------------------
    1       -0.009  -0.016   0.000  -0.025
    2       -0.021  -0.040   0.000  -0.061
    3       -0.009  -0.016   0.000  -0.025
    4       -0.002  -0.004   0.000  -0.006
    5       -0.023  -0.035   0.000  -0.058
    6       -0.002  -0.004   0.000  -0.006
    7       -0.009  -0.016   0.000  -0.025
    8       -0.021  -0.040   0.000  -0.061
    9       -0.009  -0.016   0.000  -0.025
   10       -0.005  -0.008   0.000  -0.013
   11       -0.022  -0.038   0.000  -0.060
   12       -0.005  -0.008   0.000  -0.013
   13       -0.000  -0.000   0.000  -0.000
   14       -0.022  -0.038   0.000  -0.060
   15       -0.000  -0.000   0.000  -0.001
   16       -0.005  -0.007   0.000  -0.012
   17       -0.022  -0.038   0.000  -0.060
   18       -0.005  -0.007   0.000  -0.012
   19       -0.005  -0.007   0.000  -0.012
   20       -0.022  -0.038   0.000  -0.060
   21       -0.005  -0.007   0.000  -0.012
   22       -0.000  -0.000   0.000  -0.001
   23       -0.022  -0.038   0.000  -0.060
   24       -0.000  -0.000   0.000  -0.000
   25       -0.005  -0.008   0.000  -0.013
   26       -0.022  -0.038   0.000  -0.060
   27       -0.005  -0.008   0.000  -0.013
   28        0.018   0.021   2.382   2.421
   29        0.018   0.021   2.375   2.415
   30       -0.018  -0.016  -2.324  -2.358
   31        0.018   0.022   2.375   2.416
   32        0.018   0.022   2.380   2.420
   33       -0.018  -0.016  -2.325  -2.360
   34        0.020   0.018   2.333   2.371
   35        0.020   0.018   2.335   2.373
   36        0.025   0.021   2.392   2.438
   37        0.019   0.017   2.382   2.417
   38        0.019   0.017   2.377   2.414
   39       -0.008  -0.006  -2.268  -2.282
   40        0.019   0.017   2.377   2.414
   41        0.019   0.017   2.382   2.417
   42       -0.008  -0.006  -2.268  -2.282
   43        0.018   0.026   2.384   2.428
   44        0.018   0.026   2.384   2.428
   45       -0.025  -0.027  -2.116  -2.168
   46        0.018   0.022   2.380   2.420
   47        0.018   0.022   2.375   2.416
   48       -0.018  -0.016  -2.325  -2.360
   49        0.018   0.021   2.375   2.415
   50        0.018   0.021   2.382   2.421
   51       -0.018  -0.016  -2.324  -2.358
   52        0.020   0.018   2.335   2.373
   53        0.020   0.018   2.333   2.371
   54        0.025   0.021   2.392   2.438
--------------------------------------------------
tot         -0.009  -0.168  31.479  31.302
 

 total amount of memory used by VASP MPI-rank0   941748. kBytes
=======================================================================

   base      :      30000. kBytes
   nonl-proj :      28494. kBytes
   fftplans  :      31580. kBytes
   grid      :      21385. kBytes
   one-center:        435. kBytes
   wavefun   :     829854. kBytes
 
  
  
 General timing and accounting informations for this job:
 ========================================================
  
                  Total CPU time used (sec):     1817.623
                            User time (sec):     1791.364
                          System time (sec):       26.259
                         Elapsed time (sec):     1835.928
  
                   Maximum memory used (kb):     1110320.
                   Average memory used (kb):           0.
  
                          Minor page faults:       651857
                          Major page faults:           16
                 Voluntary context switches:         2821
