 vasp.5.4.4.18Apr17-6-g9f103f2a35 (build Dec 20 2018 12:05:58) complex          
  
 executed on             LinuxIFC date 2019.06.21  00:14:13
 running on   32 total cores
 distrk:  each k-point on    8 cores,    4 groups
 distr:  one band on NCORES_PER_BAND=   4 cores,    2 groups


--------------------------------------------------------------------------------------------------------


 INCAR:
 POTCAR:    PAW_PBE Al 04Jan2001                  
 POTCAR:    PAW_PBE Mn 06Sep2000                  

 ----------------------------------------------------------------------------- 
|                                                                             |
|           W    W    AA    RRRRR   N    N  II  N    N   GGGG   !!!           |
|           W    W   A  A   R    R  NN   N  II  NN   N  G    G  !!!           |
|           W    W  A    A  R    R  N N  N  II  N N  N  G       !!!           |
|           W WW W  AAAAAA  RRRRR   N  N N  II  N  N N  G  GGG   !            |
|           WW  WW  A    A  R   R   N   NN  II  N   NN  G    G                |
|           W    W  A    A  R    R  N    N  II  N    N   GGGG   !!!           |
|                                                                             |
|      You have enabled k-point parallelism (KPAR>1).                         |
|      This developmental code was originally  written by Paul Kent at ORNL,  |
|      and carefully double checked in Vienna.                                |
|      GW as well as linear response parallelism added by Martijn Marsman     |
|      and Georg Kresse.                                                      |
|      Carefully verify results versus KPAR=1.                                |
|      Report problems to Paul Kent and Vienna.                               |
|                                                                             |
 ----------------------------------------------------------------------------- 

 POTCAR:    PAW_PBE Al 04Jan2001                  
   VRHFIN =Al: s2p1                                                             
   LEXCH  = PE                                                                  
   EATOM  =    53.5387 eV,    3.9350 Ry                                         
                                                                                
   TITEL  = PAW_PBE Al 04Jan2001                                                
   LULTRA =        F    use ultrasoft PP ?                                      
   IUNSCR =        1    unscreen: 0-lin 1-nonlin 2-no                           
   RPACOR =    1.500    partial core radius                                     
   POMASS =   26.981; ZVAL   =    3.000    mass and valenz                      
   RCORE  =    1.900    outmost cutoff radius                                   
   RWIGS  =    2.650; RWIGS  =    1.402    wigner-seitz radius (au A)           
   ENMAX  =  240.300; ENMIN  =  180.225 eV                                      
   ICORE  =        2    local potential                                         
   LCOR   =        T    correct aug charges                                     
   LPAW   =        T    paw PP                                                  
   EAUG   =  291.052                                                            
   DEXC   =    0.000                                                            
   RMAX   =    1.939    core radius for proj-oper                               
   RAUG   =    1.300    factor for augmentation sphere                          
   RDEP   =    1.966    radius for radial grids                                 
   RDEPT  =    1.856    core radius for aug-charge                              
                                                                                
   Atomic configuration                                                         
    6 entries                                                                   
     n  l   j            E        occ.                                          
     1  0  0.50     -1511.1048   2.0000                                         
     2  0  0.50      -108.1629   2.0000                                         
     2  1  1.50       -69.6402   6.0000                                         
     3  0  0.50        -7.7528   2.0000                                         
     3  1  1.50        -2.7121   1.0000                                         
     3  2  2.50        -2.7212   0.0000                                         
   Description                                                                  
     l       E           TYP  RCUT    TYP  RCUT                                 
     0     -7.7528455     23  1.900                                             
     0     -3.3096929     23  1.900                                             
     1     -2.7120682     23  1.900                                             
     1     13.6058260     23  1.900                                             
     2     -2.7211652      7  1.900                                             
  local pseudopotential read in
  partial core-charges read in
  partial kinetic energy density read in
  atomic valenz-charges read in
  non local Contribution for L=           0  read in
    real space projection operators read in
  non local Contribution for L=           0  read in
    real space projection operators read in
  non local Contribution for L=           1  read in
    real space projection operators read in
  non local Contribution for L=           1  read in
    real space projection operators read in
    PAW grid and wavefunctions read in
 
   number of l-projection  operators is LMAX  =           4
   number of lm-projection operators is LMMAX =           8
 
 POTCAR:    PAW_PBE Mn 06Sep2000                  
   VRHFIN =Mn: d6 s1                                                            
   LEXCH  = PE                                                                  
   EATOM  =   416.7541 eV,   30.6306 Ry                                         
                                                                                
   TITEL  = PAW_PBE Mn 06Sep2000                                                
   LULTRA =        F    use ultrasoft PP ?                                      
   IUNSCR =        1    unscreen: 0-lin 1-nonlin 2-no                           
   RPACOR =    2.000    partial core radius                                     
   POMASS =   54.938; ZVAL   =    7.000    mass and valenz                      
   RCORE  =    2.300    outmost cutoff radius                                   
   RWIGS  =    2.500; RWIGS  =    1.323    wigner-seitz radius (au A)           
   ENMAX  =  269.864; ENMIN  =  202.398 eV                                      
   RCLOC  =    1.725    cutoff for local pot                                    
   LCOR   =        T    correct aug charges                                     
   LPAW   =        T    paw PP                                                  
   EAUG   =  500.711                                                            
   DEXC   =    0.000                                                            
   RMAX   =    2.343    core radius for proj-oper                               
   RAUG   =    1.300    factor for augmentation sphere                          
   RDEP   =    2.338    radius for radial grids                                 
   RDEPT  =    1.911    core radius for aug-charge                              
                                                                                
   Atomic configuration                                                         
    9 entries                                                                   
     n  l   j            E        occ.                                          
     1  0  0.50     -6424.8288   2.0000                                         
     2  0  0.50      -739.1154   2.0000                                         
     2  1  1.50      -625.3949   6.0000                                         
     3  0  0.50       -81.6100   2.0000                                         
     3  1  1.50       -50.4667   6.0000                                         
     3  2  2.50        -3.3745   6.0000                                         
     4  0  0.50        -4.1331   1.0000                                         
     4  1  0.50        -4.0817   0.0000                                         
     4  3  2.50        -1.3606   0.0000                                         
   Description                                                                  
     l       E           TYP  RCUT    TYP  RCUT                                 
     2     -3.3744664     23  2.300                                             
     2     -4.7350490     23  2.300                                             
     0     -4.1331408     23  2.300                                             
     0      7.6656614     23  2.300                                             
     1     -2.7211652     23  2.300                                             
     1     20.4087390     23  2.300                                             
  local pseudopotential read in
  partial core-charges read in
  partial kinetic energy density read in
  atomic valenz-charges read in
  non local Contribution for L=           2  read in
    real space projection operators read in
  non local Contribution for L=           2  read in
    real space projection operators read in
  non local Contribution for L=           0  read in
    real space projection operators read in
  non local Contribution for L=           0  read in
    real space projection operators read in
  non local Contribution for L=           1  read in
    real space projection operators read in
  non local Contribution for L=           1  read in
    real space projection operators read in
    PAW grid and wavefunctions read in
 
   number of l-projection  operators is LMAX  =           6
   number of lm-projection operators is LMMAX =          18
 

 ----------------------------------------------------------------------------- 
|                                                                             |
|  ADVICE TO THIS USER RUNNING 'VASP/VAMP'   (HEAR YOUR MASTER'S VOICE ...):  |
|                                                                             |
|      You have a (more or less) 'large supercell' and for larger cells       |
|      it might be more efficient to use real space projection opertators     |
|      So try LREAL= Auto  in the INCAR   file.                               |
|      Mind:          For very  accurate calculation you might also keep the  |
|      reciprocal projection scheme          (i.e. LREAL=.FALSE.)             |
|                                                                             |
 ----------------------------------------------------------------------------- 

  PAW_PBE Al 04Jan2001                  :
 energy of atom  1       EATOM=  -53.5387
 kinetic energy error for atom=    0.0005 (will be added to EATOM!!)
  PAW_PBE Mn 06Sep2000                  :
 energy of atom  2       EATOM= -416.7541
 kinetic energy error for atom=    0.0080 (will be added to EATOM!!)
 
 
 POSCAR: NewRef: 27, @ ['Mn', array([1.37502469, 
  positions in cartesian coordinates
  velocities in cartesian coordinates
  No initial velocities read in
 exchange correlation table for  LEXCH =        8
   RHO(1)=    0.500       N(1)  =     2000
   RHO(2)=  100.500       N(2)  =     4000
 


--------------------------------------------------------------------------------------------------------


 ion  position               nearest neighbor table
   1  0.000  0.000  0.000-  28 2.61  30 2.61  34 2.61  36 2.61  46 2.61  48 2.61  52 2.61  54 2.61
                             4 2.75  10 2.75   7 2.75  19 2.75
   2  0.000  0.000  0.333-  28 2.61  34 2.61  46 2.61  52 2.61  29 2.61  47 2.61  35 2.61  53 2.61
                             5 2.75  11 2.75   8 2.75  20 2.75
   3  0.000  0.000  0.667-  29 2.61  35 2.61  47 2.61  53 2.61  30 2.61  48 2.61  36 2.61  54 2.61
                             6 2.75  12 2.75   9 2.75  21 2.75
   4  0.000  0.333  0.000-  28 2.61  30 2.61  46 2.61  48 2.61  31 2.61  33 2.61  49 2.61  51 2.61
                            13 2.75   1 2.75   7 2.75  22 2.75
   5  0.000  0.333  0.333-  28 2.61  46 2.61  31 2.61  49 2.61  47 2.61  29 2.61  32 2.61  50 2.61
                            14 2.75   2 2.75   8 2.75  23 2.75
   6  0.000  0.333  0.667-  29 2.61  47 2.61  32 2.61  50 2.61  48 2.61  30 2.61  33 2.61  51 2.61
                            15 2.75   3 2.75   9 2.75  24 2.75
   7  0.000  0.667  0.000-  31 2.61  33 2.61  49 2.61  51 2.61  34 2.61  36 2.61  52 2.61  54 2.61
                             4 2.75  16 2.75   1 2.75  25 2.75
   8  0.000  0.667  0.333-  31 2.61  49 2.61  34 2.61  52 2.61  50 2.61  32 2.61  35 2.61  53 2.61
                             5 2.75  17 2.75   2 2.75  26 2.75
   9  0.000  0.667  0.667-  32 2.61  50 2.61  35 2.61  53 2.61  51 2.61  33 2.61  36 2.61  54 2.61
                             6 2.75  18 2.75   3 2.75  27 2.75
  10  0.333  0.000  0.000-  28 2.61  30 2.61  34 2.61  36 2.61  37 2.61  39 2.61  43 2.61  45 2.61
                            19 2.75   1 2.75  13 2.75  16 2.75
  11  0.333  0.000  0.333-  28 2.61  34 2.61  37 2.61  43 2.61  29 2.61  35 2.61  38 2.61  44 2.61
                            20 2.75   2 2.75  14 2.75  17 2.75
  12  0.333  0.000  0.667-  29 2.61  35 2.61  38 2.61  44 2.61  30 2.61  36 2.61  39 2.61  45 2.61
                            21 2.75   3 2.75  15 2.75  18 2.75
  13  0.333  0.333  0.000-  28 2.61  30 2.61  31 2.61  33 2.61  37 2.61  39 2.61  40 2.61  42 2.61
                             4 2.75  10 2.75  16 2.75  22 2.75
  14  0.333  0.333  0.333-  28 2.61  31 2.61  37 2.61  29 2.61  40 2.61  38 2.61  32 2.61  41 2.61
                             5 2.75  11 2.75  17 2.75  23 2.75
  15  0.333  0.333  0.667-  29 2.61  32 2.61  38 2.61  30 2.61  41 2.61  39 2.61  33 2.61  42 2.61
                             6 2.75  12 2.75  18 2.75  24 2.75
  16  0.333  0.667  0.000-  31 2.61  33 2.61  34 2.61  36 2.61  40 2.61  42 2.61  43 2.61  45 2.61
                            25 2.75   7 2.75  13 2.75  10 2.75
  17  0.333  0.667  0.333-  31 2.61  34 2.61  40 2.61  32 2.61  43 2.61  41 2.61  35 2.61  44 2.61
                            26 2.75   8 2.75  14 2.75  11 2.75
  18  0.333  0.667  0.667-  32 2.61  35 2.61  41 2.61  33 2.61  44 2.61  42 2.61  36 2.61  45 2.61
                            27 2.75   9 2.75  15 2.75  12 2.75
  19  0.667  0.000  0.000-  37 2.61  39 2.61  43 2.61  45 2.61  46 2.61  48 2.61  52 2.61  54 2.61
                            10 2.75  22 2.75   1 2.75  25 2.75
  20  0.667  0.000  0.333-  37 2.61  43 2.61  46 2.61  52 2.61  38 2.61  44 2.61  47 2.61  53 2.61
                            11 2.75  23 2.75   2 2.75  26 2.75
  21  0.667  0.000  0.667-  38 2.61  44 2.61  47 2.61  53 2.61  39 2.61  45 2.61  48 2.61  54 2.61
                            12 2.75  24 2.75   3 2.75  27 2.75
  22  0.667  0.333  0.000-  37 2.61  39 2.61  40 2.61  42 2.61  46 2.61  48 2.61  49 2.61  51 2.61
                            25 2.75  13 2.75  19 2.75   4 2.75
  23  0.667  0.333  0.333-  37 2.61  40 2.61  46 2.61  38 2.61  49 2.61  47 2.61  41 2.61  50 2.61
                            26 2.75  14 2.75  20 2.75   5 2.75
  24  0.667  0.333  0.667-  38 2.61  41 2.61  47 2.61  39 2.61  50 2.61  48 2.61  42 2.61  51 2.61
                            27 2.75  15 2.75  21 2.75   6 2.75
  25  0.667  0.667  0.000-  40 2.61  42 2.61  43 2.61  45 2.61  49 2.61  51 2.61  52 2.61  54 2.61
                            16 2.75  22 2.75  19 2.75   7 2.75
  26  0.667  0.667  0.333-  40 2.61  43 2.61  49 2.61  41 2.61  52 2.61  50 2.61  44 2.61  53 2.61
                            17 2.75  23 2.75  20 2.75   8 2.75
  27  0.667  0.667  0.667-  41 2.61  44 2.61  50 2.61  42 2.61  53 2.61  51 2.61  45 2.61  54 2.61
                            18 2.75  24 2.75  21 2.75   9 2.75
  28  0.167  0.167  0.167-  14 2.61  11 2.61   5 2.61  13 2.61   2 2.61  10 2.61   4 2.61   1 2.61
                            31 2.75  37 2.75  34 2.75  46 2.75
  29  0.167  0.167  0.500-  15 2.61  12 2.61   6 2.61  14 2.61   3 2.61  11 2.61   5 2.61   2 2.61
                            32 2.75  38 2.75  35 2.75  47 2.75
  30  0.167  0.167  0.833-  13 2.61  15 2.61  10 2.61  12 2.61   4 2.61   6 2.61   1 2.61   3 2.61
                            33 2.75  39 2.75  36 2.75  48 2.75
  31  0.167  0.500  0.167-  17 2.61  14 2.61   8 2.61  16 2.61   5 2.61  13 2.61   7 2.61   4 2.61
                            28 2.75  34 2.75  40 2.75  49 2.75
  32  0.167  0.500  0.500-  18 2.61  15 2.61   9 2.61  17 2.61   6 2.61  14 2.61   8 2.61   5 2.61
                            29 2.75  35 2.75  41 2.75  50 2.75
  33  0.167  0.500  0.833-  16 2.61  18 2.61  13 2.61  15 2.61   7 2.61   9 2.61   4 2.61   6 2.61
                            30 2.75  36 2.75  42 2.75  51 2.75
  34  0.167  0.833  0.167-  11 2.61  17 2.61   2 2.61   8 2.61  16 2.61  10 2.61   7 2.61   1 2.61
                            31 2.75  43 2.75  28 2.75  52 2.75
  35  0.167  0.833  0.500-  12 2.61  18 2.61   3 2.61   9 2.61  17 2.61  11 2.61   8 2.61   2 2.61
                            32 2.75  44 2.75  29 2.75  53 2.75
  36  0.167  0.833  0.833-  10 2.61  12 2.61  16 2.61  18 2.61   1 2.61   3 2.61   7 2.61   9 2.61
                            33 2.75  45 2.75  30 2.75  54 2.75
  37  0.500  0.167  0.167-  23 2.61  20 2.61  14 2.61  22 2.61  11 2.61  19 2.61  13 2.61  10 2.61
                            28 2.75  40 2.75  46 2.75  43 2.75
  38  0.500  0.167  0.500-  24 2.61  21 2.61  15 2.61  23 2.61  12 2.61  20 2.61  14 2.61  11 2.61
                            29 2.75  41 2.75  47 2.75  44 2.75
  39  0.500  0.167  0.833-  22 2.61  24 2.61  19 2.61  21 2.61  13 2.61  15 2.61  10 2.61  12 2.61
                            30 2.75  42 2.75  48 2.75  45 2.75
  40  0.500  0.500  0.167-  26 2.61  23 2.61  17 2.61  25 2.61  14 2.61  22 2.61  16 2.61  13 2.61
                            31 2.75  37 2.75  43 2.75  49 2.75
  41  0.500  0.500  0.500-  27 2.61  24 2.61  18 2.61  26 2.61  15 2.61  23 2.61  17 2.61  14 2.61
                            32 2.75  38 2.75  44 2.75  50 2.75
  42  0.500  0.500  0.833-  25 2.61  27 2.61  22 2.61  24 2.61  16 2.61  18 2.61  13 2.61  15 2.61
                            33 2.75  39 2.75  45 2.75  51 2.75
  43  0.500  0.833  0.167-  20 2.61  26 2.61  11 2.61  17 2.61  25 2.61  19 2.61  16 2.61  10 2.61
                            34 2.75  40 2.75  52 2.75  37 2.75
  44  0.500  0.833  0.500-  21 2.61  27 2.61  12 2.61  18 2.61  26 2.61  20 2.61  17 2.61  11 2.61
                            35 2.75  41 2.75  53 2.75  38 2.75
  45  0.500  0.833  0.833-  19 2.61  21 2.61  25 2.61  27 2.61  10 2.61  12 2.61  16 2.61  18 2.61
                            36 2.75  42 2.75  54 2.75  39 2.75
  46  0.833  0.167  0.167-   5 2.61  23 2.61  20 2.61   2 2.61  22 2.61   4 2.61  19 2.61   1 2.61
                            37 2.75  49 2.75  28 2.75  52 2.75
  47  0.833  0.167  0.500-   6 2.61  24 2.61  21 2.61   3 2.61  23 2.61   5 2.61  20 2.61   2 2.61
                            38 2.75  50 2.75  29 2.75  53 2.75
  48  0.833  0.167  0.833-   4 2.61   6 2.61  22 2.61  24 2.61  19 2.61  21 2.61   1 2.61   3 2.61
                            39 2.75  51 2.75  30 2.75  54 2.75
  49  0.833  0.500  0.167-   8 2.61  26 2.61  23 2.61   5 2.61  25 2.61   7 2.61  22 2.61   4 2.61
                            40 2.75  46 2.75  52 2.75  31 2.75
  50  0.833  0.500  0.500-   9 2.61  27 2.61  24 2.61   6 2.61  26 2.61   8 2.61  23 2.61   5 2.61
                            41 2.75  47 2.75  53 2.75  32 2.75
  51  0.833  0.500  0.833-   7 2.61   9 2.61  25 2.61  27 2.61  22 2.61  24 2.61   4 2.61   6 2.61
                            42 2.75  48 2.75  54 2.75  33 2.75
  52  0.833  0.833  0.167-   2 2.61   8 2.61  20 2.61  26 2.61  19 2.61   7 2.61  25 2.61   1 2.61
                            43 2.75  49 2.75  46 2.75  34 2.75
  53  0.833  0.833  0.500-   3 2.61   9 2.61  21 2.61  27 2.61  20 2.61   8 2.61  26 2.61   2 2.61
                            44 2.75  50 2.75  47 2.75  35 2.75
  54  0.833  0.833  0.833-   1 2.61   3 2.61   7 2.61   9 2.61  19 2.61  21 2.61  25 2.61  27 2.61
                            45 2.75  51 2.75  48 2.75  36 2.75
 
  LATTYP: Found a simple tetragonal cell.
 ALAT       =     8.2501481662
 C/A-ratio  =     1.2642089792
  
  Lattice vectors:
  
 A1 = (   8.2501481662,   0.0000000000,   0.0000000000)
 A2 = (   0.0000000000,   8.2501481662,   0.0000000000)
 A3 = (   0.0000000000,   0.0000000000,  10.4299113916)


Analysis of symmetry for initial positions (statically):
=====================================================================
 Subroutine PRICEL returns following result:
 
  LATTYP: Found a simple tetragonal cell.
 ALAT       =     2.7500493888
 C/A-ratio  =     1.2642089792
  
  Lattice vectors:
  
 A1 = (   2.7500493888,   0.0000000000,   0.0000000000)
 A2 = (   0.0000000000,   2.7500493888,   0.0000000000)
 A3 = (   0.0000000000,   0.0000000000,   3.4766371306)
 
  27 primitive cells build up your supercell.
 

 Routine SETGRP: Setting up the symmetry group for a 
 simple tetragonal supercell.


 Subroutine GETGRP returns: Found 16 space group operations
 (whereof 16 operations were pure point group operations)
 out of a pool of 16 trial point group operations.


The static configuration has the point symmetry D_4h.


Analysis of symmetry for dynamics (positions and initial velocities):
=====================================================================
 Subroutine PRICEL returns following result:
 
  LATTYP: Found a simple tetragonal cell.
 ALAT       =     2.7500493888
 C/A-ratio  =     1.2642089792
  
  Lattice vectors:
  
 A1 = (   2.7500493888,   0.0000000000,   0.0000000000)
 A2 = (   0.0000000000,   2.7500493888,   0.0000000000)
 A3 = (   0.0000000000,   0.0000000000,   3.4766371306)
 
  27 primitive cells build up your supercell.
 

 Routine SETGRP: Setting up the symmetry group for a 
 simple tetragonal supercell.


 Subroutine GETGRP returns: Found 16 space group operations
 (whereof 16 operations were pure point group operations)
 out of a pool of 16 trial point group operations.


The dynamic configuration has the point symmetry D_4h.


Analysis of structural, dynamic, and magnetic symmetry:
=====================================================================
 Subroutine PRICEL returns:
 Original cell was already a primitive cell.
 

 Routine SETGRP: Setting up the symmetry group for a 
 simple tetragonal supercell.


 Subroutine GETGRP returns: Found  8 space group operations
 (whereof  2 operations were pure point group operations)
 out of a pool of 16 trial point group operations.


The magnetic configuration has the point symmetry C_1h.
 The point group associated with its full space group is C_4v.


 Subroutine INISYM returns: Found  8 space group operations
 (whereof  2 operations are pure point group operations),
 and found     1 'primitive' translations

 
 
 KPOINTS: automatic KPOINTS                       

Automatic generation of k-mesh.
 generate k-points for:    5    5    4
Space group operators:
 irot       det(A)        alpha          n_x          n_y          n_z        tau_x        tau_y        tau_z
    1     1.000000     0.000001     1.000000     0.000000     0.000000     0.000000     0.000000     0.000000
    2    -1.000000   180.000000     0.707107    -0.707107     0.000000     0.000000     0.000000     0.000000
    3     1.000000    90.000000     0.000000     0.000000    -1.000000     0.333333     0.000000     0.000000
    4     1.000000   180.000000     0.000000     0.000000     1.000000     0.333333     0.333333     0.000000
    5     1.000000    90.000000     0.000000     0.000000     1.000000     0.000000     0.333333     0.000000
    6    -1.000000   180.000000     0.000000     1.000000     0.000000     0.000000     0.333333     0.000000
    7    -1.000000   180.000000     0.707107     0.707107     0.000000     0.333333     0.333333     0.000000
    8    -1.000000   180.000000     1.000000     0.000000     0.000000     0.333333     0.000000     0.000000
 
 Subroutine IBZKPT returns following result:
 ===========================================
 
 Found     18 irreducible k-points:
 
 Following reciprocal coordinates:
            Coordinates               Weight
  0.000000  0.000000  0.000000      1.000000
  0.200000  0.000000  0.000000      4.000000
  0.400000  0.000000  0.000000      4.000000
  0.200000  0.200000  0.000000      4.000000
  0.400000  0.200000  0.000000      8.000000
  0.400000  0.400000  0.000000      4.000000
  0.000000  0.000000  0.250000      2.000000
  0.200000  0.000000  0.250000      8.000000
  0.400000  0.000000  0.250000      8.000000
  0.200000  0.200000  0.250000      8.000000
  0.400000  0.200000  0.250000     16.000000
  0.400000  0.400000  0.250000      8.000000
  0.000000  0.000000  0.500000      1.000000
  0.200000  0.000000  0.500000      4.000000
  0.400000  0.000000  0.500000      4.000000
  0.200000  0.200000  0.500000      4.000000
  0.400000  0.200000  0.500000      8.000000
  0.400000  0.400000  0.500000      4.000000
 
 Following cartesian coordinates:
            Coordinates               Weight
  0.000000  0.000000  0.000000      1.000000
  0.024242  0.000000  0.000000      4.000000
  0.048484  0.000000  0.000000      4.000000
  0.024242  0.024242  0.000000      4.000000
  0.048484  0.024242  0.000000      8.000000
  0.048484  0.048484  0.000000      4.000000
  0.000000  0.000000  0.023970      2.000000
  0.024242  0.000000  0.023970      8.000000
  0.048484  0.000000  0.023970      8.000000
  0.024242  0.024242  0.023970      8.000000
  0.048484  0.024242  0.023970     16.000000
  0.048484  0.048484  0.023970      8.000000
  0.000000  0.000000  0.047939      1.000000
  0.024242  0.000000  0.047939      4.000000
  0.048484  0.000000  0.047939      4.000000
  0.024242  0.024242  0.047939      4.000000
  0.048484  0.024242  0.047939      8.000000
  0.048484  0.048484  0.047939      4.000000
 


--------------------------------------------------------------------------------------------------------




 Dimension of arrays:
   k-points           NKPTS =     18   k-points in BZ     NKDIM =     18   number of bands    NBANDS=    154
   number of dos      NEDOS =    301   number of ions     NIONS =     54
   non local maximal  LDIM  =      6   non local SUM 2l+1 LMDIM =     18
   total plane-waves  NPLWV = 204120
   max r-space proj   IRMAX =      1   max aug-charges    IRDMAX=  89713
   dimension x,y,z NGX =    54 NGY =   54 NGZ =   70
   dimension x,y,z NGXF=   108 NGYF=  108 NGZF=  140
   support grid    NGXF=   216 NGYF=  216 NGZF=  280
   ions per type =              27  27
   NGX,Y,Z   is equivalent  to a cutoff of  10.88, 10.88, 11.16 a.u.
   NGXF,Y,Z  is equivalent  to a cutoff of  21.76, 21.76, 22.32 a.u.

 SYSTEM =  AlMn_pv                                 
 POSCAR =  NewRef: 27, @ ['Mn', array([1.37502469, 

 Startparameter for this run:
   NWRITE =      2    write-flag & timer
   PREC   = accura    normal or accurate (medium, high low for compatibility)
   ISTART =      0    job   : 0-new  1-cont  2-samecut
   ICHARG =      2    charge: 1-file 2-atom 10-const
   ISPIN  =      2    spin polarized calculation?
   LNONCOLLINEAR =      F non collinear calculations
   LSORBIT =      F    spin-orbit coupling
   INIWAV =      1    electr: 0-lowe 1-rand  2-diag
   LASPH  =      F    aspherical Exc in radial PAW
   METAGGA=      F    non-selfconsistent MetaGGA calc.

 Electronic Relaxation 1
   ENCUT  =  404.8 eV  29.75 Ry    5.45 a.u.  13.53 13.53 17.11*2*pi/ulx,y,z
   ENINI  =  404.8     initial cutoff
   ENAUG  =  500.7 eV  augmentation charge cutoff
   NELM   =    100;   NELMIN=  4; NELMDL= -8     # of ELM steps 
   EDIFF  = 0.1E-06   stopping-criterion for ELM
   LREAL  =      F    real-space projection
   NLSPLINE    = F    spline interpolate recip. space projectors
   LCOMPAT=      F    compatible to vasp.4.4
   GGA_COMPAT  = T    GGA compatible to vasp.4.4-vasp.4.6
   LMAXPAW     = -100 max onsite density
   LMAXMIX     =    2 max onsite mixed and CHGCAR
   VOSKOWN=      0    Vosko Wilk Nusair interpolation
   ROPT   =    0.00000   0.00000
 Ionic relaxation
   EDIFFG = 0.1E-05   stopping-criterion for IOM
   NSW    =      0    number of steps for IOM
   NBLOCK =      1;   KBLOCK =      1    inner block; outer block 
   IBRION =     -1    ionic relax: 0-MD 1-quasi-New 2-CG
   NFREE  =      0    steps in history (QN), initial steepest desc. (CG)
   ISIF   =      2    stress and relaxation
   IWAVPR =     10    prediction:  0-non 1-charg 2-wave 3-comb
   ISYM   =      2    0-nonsym 1-usesym 2-fastsym
   LCORR  =      T    Harris-Foulkes like correction to forces

   POTIM  = 0.2000    time-step for ionic-motion
   TEIN   =    0.0    initial temperature
   TEBEG  =    0.0;   TEEND  =   0.0 temperature during run
   SMASS  =  -3.00    Nose mass-parameter (am)
   estimated Nose-frequenzy (Omega)   =  0.10E-29 period in steps =****** mass=  -0.156E-26a.u.
   SCALEE = 1.0000    scale energy and forces
   NPACO  =    256;   APACO  = 16.0  distance and # of slots for P.C.
   PSTRESS=    0.0 pullay stress

  Mass of Ions in am
   POMASS =  26.98 54.94
  Ionic Valenz
   ZVAL   =   3.00  7.00
  Atomic Wigner-Seitz radii
   RWIGS  =  -1.00 -1.00
  virtual crystal weights 
   VCA    =   1.00  1.00
   NELECT =     270.0000    total number of electrons
   NUPDOWN=      -1.0000    fix difference up-down

 DOS related values:
   EMIN   =  10.00;   EMAX   =-10.00  energy-range for DOS
   EFERMI =   0.00
   ISMEAR =     1;   SIGMA  =   0.20  broadening in eV -4-tet -1-fermi 0-gaus

 Electronic relaxation 2 (details)
   IALGO  =     58    algorithm
   LDIAG  =      T    sub-space diagonalisation (order eigenvalues)
   LSUBROT=      F    optimize rotation matrix (better conditioning)
   TURBO    =      0    0=normal 1=particle mesh
   IRESTART =      0    0=no restart 2=restart with 2 vectors
   NREBOOT  =      0    no. of reboots
   NMIN     =      0    reboot dimension
   EREF     =   0.00    reference energy to select bands
   IMIX   =      4    mixing-type and parameters
     AMIX     =   0.40;   BMIX     =  1.00
     AMIX_MAG =   1.60;   BMIX_MAG =  1.00
     AMIN     =   0.10
     WC   =   100.;   INIMIX=   1;  MIXPRE=   1;  MAXMIX= -45

 Intra band minimization:
   WEIMIN = 0.0000     energy-eigenvalue tresh-hold
   EBREAK =  0.16E-09  absolut break condition
   DEPER  =   0.30     relativ break condition  

   TIME   =   0.40     timestep for ELM

  volume/ion in A,a.u.               =      13.15        88.72
  Fermi-wavevector in a.u.,A,eV,Ry     =   1.186118  2.241439 19.141722  1.406877
  Thomas-Fermi vector in A             =   2.322298
 
 Write flags
   LWAVE        =      F    write WAVECAR
   LDOWNSAMPLE  =      F    k-point downsampling of WAVECAR
   LCHARG       =      F    write CHGCAR
   LVTOT        =      F    write LOCPOT, total local potential
   LVHAR        =      F    write LOCPOT, Hartree potential only
   LELF         =      F    write electronic localiz. function (ELF)
   LORBIT       =     10    0 simple, 1 ext, 2 COOP (PROOUT), +10 PAW based schemes


 Dipole corrections
   LMONO  =      F    monopole corrections only (constant potential shift)
   LDIPOL =      F    correct potential (dipole corrections)
   IDIPOL =      0    1-x, 2-y, 3-z, 4-all directions 
   EPSILON=  1.0000000 bulk dielectric constant

 Exchange correlation treatment:
   GGA     =    --    GGA type
   LEXCH   =     8    internal setting for exchange type
   VOSKOWN=      0    Vosko Wilk Nusair interpolation
   LHFCALC =     F    Hartree Fock is set to
   LHFONE  =     F    Hartree Fock one center treatment
   AEXX    =    0.0000 exact exchange contribution

 Linear response parameters
   LEPSILON=     F    determine dielectric tensor
   LRPA    =     F    only Hartree local field effects (RPA)
   LNABLA  =     F    use nabla operator in PAW spheres
   LVEL    =     F    velocity operator in full k-point grid
   LINTERFAST=   F  fast interpolation
   KINTER  =     0    interpolate to denser k-point grid
   CSHIFT  =0.1000    complex shift for real part using Kramers Kronig
   OMEGAMAX=  -1.0    maximum frequency
   DEG_THRESHOLD= 0.2000000E-02 threshold for treating states as degnerate
   RTIME   =   -0.100 relaxation time in fs
  (WPLASMAI=    0.000 imaginary part of plasma frequency in eV, 0.658/RTIME)
   DFIELD  = 0.0000000 0.0000000 0.0000000 field for delta impulse in time
 
 Orbital magnetization related:
   ORBITALMAG=     F  switch on orbital magnetization
   LCHIMAG   =     F  perturbation theory with respect to B field
   DQ        =  0.001000  dq finite difference perturbation B field
   LLRAUG    =     F  two centre corrections for induced B field



--------------------------------------------------------------------------------------------------------


 Static calculation
 charge density and potential will be updated during run
 spin polarized calculation
 Conjugate gradient for all bands (Freysoldt, et al. PRB 79, 241103 (2009))
 preconditioned conjugated gradient                                        
 perform sub-space diagonalisation
    before iterative eigenvector-optimisation
 modified Broyden-mixing scheme, WC =      100.0
 initial mixing is a Kerker type mixing with AMIX =  0.4000 and BMIX =      1.0000
 Hartree-type preconditioning will be used
 using additional bands           19
 reciprocal scheme for non local part
 use partial core corrections
 no Harris-corrections to forces 
 use gradient corrections 
 use of overlap-Matrix (Vanderbilt PP)
 Methfessel and Paxton  Order N= 1 SIGMA  =   0.20


--------------------------------------------------------------------------------------------------------


  energy-cutoff  :      404.80
  volume of cell :      709.91
      direct lattice vectors                 reciprocal lattice vectors
     8.250148166  0.000000000  0.000000000     0.121209944  0.000000000  0.000000000
     0.000000000  8.250148166  0.000000000     0.000000000  0.121209944  0.000000000
     0.000000000  0.000000000 10.429911392     0.000000000  0.000000000  0.095878092

  length of vectors
     8.250148166  8.250148166 10.429911392     0.121209944  0.121209944  0.095878092


 
 k-points in units of 2pi/SCALE and weight: automatic KPOINTS                       
   0.00000000  0.00000000  0.00000000       0.010
   0.02424199  0.00000000  0.00000000       0.040
   0.04848398  0.00000000  0.00000000       0.040
   0.02424199  0.02424199  0.00000000       0.040
   0.04848398  0.02424199  0.00000000       0.080
   0.04848398  0.04848398  0.00000000       0.040
   0.00000000  0.00000000  0.02396952       0.020
   0.02424199  0.00000000  0.02396952       0.080
   0.04848398  0.00000000  0.02396952       0.080
   0.02424199  0.02424199  0.02396952       0.080
   0.04848398  0.02424199  0.02396952       0.160
   0.04848398  0.04848398  0.02396952       0.080
   0.00000000  0.00000000  0.04793905       0.010
   0.02424199  0.00000000  0.04793905       0.040
   0.04848398  0.00000000  0.04793905       0.040
   0.02424199  0.02424199  0.04793905       0.040
   0.04848398  0.02424199  0.04793905       0.080
   0.04848398  0.04848398  0.04793905       0.040
 
 k-points in reciprocal lattice and weights: automatic KPOINTS                       
   0.00000000  0.00000000  0.00000000       0.010
   0.20000000  0.00000000  0.00000000       0.040
   0.40000000  0.00000000  0.00000000       0.040
   0.20000000  0.20000000  0.00000000       0.040
   0.40000000  0.20000000  0.00000000       0.080
   0.40000000  0.40000000  0.00000000       0.040
   0.00000000  0.00000000  0.25000000       0.020
   0.20000000  0.00000000  0.25000000       0.080
   0.40000000  0.00000000  0.25000000       0.080
   0.20000000  0.20000000  0.25000000       0.080
   0.40000000  0.20000000  0.25000000       0.160
   0.40000000  0.40000000  0.25000000       0.080
   0.00000000  0.00000000  0.50000000       0.010
   0.20000000  0.00000000  0.50000000       0.040
   0.40000000  0.00000000  0.50000000       0.040
   0.20000000  0.20000000  0.50000000       0.040
   0.40000000  0.20000000  0.50000000       0.080
   0.40000000  0.40000000  0.50000000       0.040
 
 position of ions in fractional coordinates (direct lattice) 
   0.00000000  0.00000000  0.00000000
   0.00000000  0.00000000  0.33333333
   0.00000000  0.00000000  0.66666667
   0.00000000  0.33333333  0.00000000
   0.00000000  0.33333333  0.33333333
   0.00000000  0.33333333  0.66666667
   0.00000000  0.66666667  0.00000000
   0.00000000  0.66666667  0.33333333
   0.00000000  0.66666667  0.66666667
   0.33333333  0.00000000  0.00000000
   0.33333333  0.00000000  0.33333333
   0.33333333  0.00000000  0.66666667
   0.33333333  0.33333333  0.00000000
   0.33333333  0.33333333  0.33333333
   0.33333333  0.33333333  0.66666667
   0.33333333  0.66666667  0.00000000
   0.33333333  0.66666667  0.33333333
   0.33333333  0.66666667  0.66666667
   0.66666667  0.00000000  0.00000000
   0.66666667  0.00000000  0.33333333
   0.66666667  0.00000000  0.66666667
   0.66666667  0.33333333  0.00000000
   0.66666667  0.33333333  0.33333333
   0.66666667  0.33333333  0.66666667
   0.66666667  0.66666667  0.00000000
   0.66666667  0.66666667  0.33333333
   0.66666667  0.66666667  0.66666667
   0.16666667  0.16666667  0.16666667
   0.16666667  0.16666667  0.50000000
   0.16666667  0.16666667  0.83333333
   0.16666667  0.50000000  0.16666667
   0.16666667  0.50000000  0.50000000
   0.16666667  0.50000000  0.83333333
   0.16666667  0.83333333  0.16666667
   0.16666667  0.83333333  0.50000000
   0.16666667  0.83333333  0.83333333
   0.50000000  0.16666667  0.16666667
   0.50000000  0.16666667  0.50000000
   0.50000000  0.16666667  0.83333333
   0.50000000  0.50000000  0.16666667
   0.50000000  0.50000000  0.50000000
   0.50000000  0.50000000  0.83333333
   0.50000000  0.83333333  0.16666667
   0.50000000  0.83333333  0.50000000
   0.50000000  0.83333333  0.83333333
   0.83333333  0.16666667  0.16666667
   0.83333333  0.16666667  0.50000000
   0.83333333  0.16666667  0.83333333
   0.83333333  0.50000000  0.16666667
   0.83333333  0.50000000  0.50000000
   0.83333333  0.50000000  0.83333333
   0.83333333  0.83333333  0.16666667
   0.83333333  0.83333333  0.50000000
   0.83333333  0.83333333  0.83333333
 
 position of ions in cartesian coordinates  (Angst):
   0.00000000  0.00000000  0.00000000
   0.00000000  0.00000000  3.47663713
   0.00000000  0.00000000  6.95327426
   0.00000000  2.75004939  0.00000000
   0.00000000  2.75004939  3.47663713
   0.00000000  2.75004939  6.95327426
   0.00000000  5.50009878  0.00000000
   0.00000000  5.50009878  3.47663713
   0.00000000  5.50009878  6.95327426
   2.75004939  0.00000000  0.00000000
   2.75004939  0.00000000  3.47663713
   2.75004939  0.00000000  6.95327426
   2.75004939  2.75004939  0.00000000
   2.75004939  2.75004939  3.47663713
   2.75004939  2.75004939  6.95327426
   2.75004939  5.50009878  0.00000000
   2.75004939  5.50009878  3.47663713
   2.75004939  5.50009878  6.95327426
   5.50009878  0.00000000  0.00000000
   5.50009878  0.00000000  3.47663713
   5.50009878  0.00000000  6.95327426
   5.50009878  2.75004939  0.00000000
   5.50009878  2.75004939  3.47663713
   5.50009878  2.75004939  6.95327426
   5.50009878  5.50009878  0.00000000
   5.50009878  5.50009878  3.47663713
   5.50009878  5.50009878  6.95327426
   1.37502469  1.37502469  1.73831857
   1.37502469  1.37502469  5.21495570
   1.37502469  1.37502469  8.69159283
   1.37502469  4.12507408  1.73831857
   1.37502469  4.12507408  5.21495570
   1.37502469  4.12507408  8.69159283
   1.37502469  6.87512347  1.73831857
   1.37502469  6.87512347  5.21495570
   1.37502469  6.87512347  8.69159283
   4.12507408  1.37502469  1.73831857
   4.12507408  1.37502469  5.21495570
   4.12507408  1.37502469  8.69159283
   4.12507408  4.12507408  1.73831857
   4.12507408  4.12507408  5.21495570
   4.12507408  4.12507408  8.69159283
   4.12507408  6.87512347  1.73831857
   4.12507408  6.87512347  5.21495570
   4.12507408  6.87512347  8.69159283
   6.87512347  1.37502469  1.73831857
   6.87512347  1.37502469  5.21495570
   6.87512347  1.37502469  8.69159283
   6.87512347  4.12507408  1.73831857
   6.87512347  4.12507408  5.21495570
   6.87512347  4.12507408  8.69159283
   6.87512347  6.87512347  1.73831857
   6.87512347  6.87512347  5.21495570
   6.87512347  6.87512347  8.69159283
 


--------------------------------------------------------------------------------------------------------


 k-point  1 :   0.0000 0.0000 0.0000  plane waves:   13099
 k-point  2 :   0.2000 0.0000 0.0000  plane waves:   13101
 k-point  3 :   0.4000 0.0000 0.0000  plane waves:   13111
 k-point  4 :   0.2000 0.2000 0.0000  plane waves:   13137
 k-point  5 :   0.4000 0.2000 0.0000  plane waves:   13119
 k-point  6 :   0.4000 0.4000 0.0000  plane waves:   13129
 k-point  7 :   0.0000 0.0000 0.2500  plane waves:   13134
 k-point  8 :   0.2000 0.0000 0.2500  plane waves:   13149
 k-point  9 :   0.4000 0.0000 0.2500  plane waves:   13119
 k-point 10 :   0.2000 0.2000 0.2500  plane waves:   13145
 k-point 11 :   0.4000 0.2000 0.2500  plane waves:   13134
 k-point 12 :   0.4000 0.4000 0.2500  plane waves:   13108
 k-point 13 :   0.0000 0.0000 0.5000  plane waves:   13186
 k-point 14 :   0.2000 0.0000 0.5000  plane waves:   13124
 k-point 15 :   0.4000 0.0000 0.5000  plane waves:   13152
 k-point 16 :   0.2000 0.2000 0.5000  plane waves:   13136
 k-point 17 :   0.4000 0.2000 0.5000  plane waves:   13128
 k-point 18 :   0.4000 0.4000 0.5000  plane waves:   13112

 maximum and minimum number of plane-waves per node :      3304     3246

 maximum number of plane-waves:     13186
 maximum index in each direction: 
   IXMAX=   13   IYMAX=   13   IZMAX=   17
   IXMIN=  -13   IYMIN=  -13   IZMIN=  -17


 parallel 3D FFT for wavefunctions:
    minimum data exchange during FFTs selected (reduces bandwidth)
 parallel 3D FFT for charge:
    minimum data exchange during FFTs selected (reduces bandwidth)


 total amount of memory used by VASP MPI-rank0   566378. kBytes
=======================================================================

   base      :      30000. kBytes
   nonl-proj :      19946. kBytes
   fftplans  :      31580. kBytes
   grid      :      21385. kBytes
   one-center:        435. kBytes
   wavefun   :     463032. kBytes
 
     INWAV:  cpu time    0.0000: real time    0.0000
 Broyden mixing: mesh for mixing (old mesh)
   NGX = 27   NGY = 27   NGZ = 35
  (NGX  =108   NGY  =108   NGZ  =140)
  gives a total of  25515 points

 initial charge density was supplied:
 charge density of overlapping atoms calculated
 number of electron     270.0000000 magnetization     -21.0000000
 keeping initial charge density in first step


--------------------------------------------------------------------------------------------------------


 Maximum index for augmentation-charges        10967 (set IRDMAX)


--------------------------------------------------------------------------------------------------------


 First call to EWALD:  gamma=   0.199
 Maximum number of real-space cells 3x 3x 2
 Maximum number of reciprocal cells 3x 3x 3

    FEWALD:  cpu time    0.0108: real time    0.0108


--------------------------------------- Iteration      1(   1)  ---------------------------------------


    POTLOK:  cpu time    0.4085: real time    0.4088
    SETDIJ:  cpu time    0.4565: real time    0.4568
    TRIAL :  cpu time   19.2315: real time   19.3946
    CORREC:  cpu time    0.0033: real time    0.0043
    --------------------------------------------
      LOOP:  cpu time   20.2509: real time   20.4226

 eigenvalue-minimisations  : 11088
 total energy-change (2. order) : 0.2094518E+04  (-0.8613075E+04)
 number of electron     270.0000000 magnetization     -21.0000000
 augmentation part      270.0000000 magnetization     -21.0000000

 Free energy of the ion-electron system (eV)
  ---------------------------------------------------
  alpha Z        PSCENC =       798.38614055
  Ewald energy   TEWEN  =    -12901.57693327
  -Hartree energ DENC   =     -2855.60785864
  -exchange      EXHF   =         0.00000000
  -V(xc)+E(xc)   XCENC  =      -995.96582484
  PAW double counting   =     12741.82587617   -11476.22345381
  entropy T*S    EENTRO =        -0.00776188
  eigenvalues    EBANDS =      4086.01345829
  atomic energy  EATOM  =     12697.67401269
  ---------------------------------------------------
  free energy    TOTEN  =      2094.51765525 eV

  energy without entropy =     2094.52541713  energy(sigma->0) =     2094.52024254


--------------------------------------------------------------------------------------------------------




--------------------------------------- Iteration      1(   2)  ---------------------------------------


    TRIAL :  cpu time   19.1644: real time   19.2005
    CORREC:  cpu time    0.0041: real time    0.0043
    --------------------------------------------
      LOOP:  cpu time   19.1918: real time   19.2302

 eigenvalue-minimisations  : 11088
 total energy-change (2. order) :-0.2123787E+04  (-0.2098524E+04)
 number of electron     270.0000000 magnetization     -21.0000000
 augmentation part      270.0000000 magnetization     -21.0000000

 Free energy of the ion-electron system (eV)
  ---------------------------------------------------
  alpha Z        PSCENC =       798.38614055
  Ewald energy   TEWEN  =    -12901.57693327
  -Hartree energ DENC   =     -2855.60785864
  -exchange      EXHF   =         0.00000000
  -V(xc)+E(xc)   XCENC  =      -995.96582484
  PAW double counting   =     12741.82587617   -11476.22345381
  entropy T*S    EENTRO =         0.00670273
  eigenvalues    EBANDS =      1962.21196267
  atomic energy  EATOM  =     12697.67401269
  ---------------------------------------------------
  free energy    TOTEN  =       -29.26937576 eV

  energy without entropy =      -29.27607849  energy(sigma->0) =      -29.27161000


--------------------------------------------------------------------------------------------------------




--------------------------------------- Iteration      1(   3)  ---------------------------------------


    TRIAL :  cpu time   26.8878: real time   27.8881
    CORREC:  cpu time    0.0051: real time    0.0061
    --------------------------------------------
      LOOP:  cpu time   26.8949: real time   27.8979

 eigenvalue-minimisations  : 16876
 total energy-change (2. order) :-0.3064337E+03  (-0.2854424E+03)
 number of electron     270.0000000 magnetization     -21.0000000
 augmentation part      270.0000000 magnetization     -21.0000000

 Free energy of the ion-electron system (eV)
  ---------------------------------------------------
  alpha Z        PSCENC =       798.38614055
  Ewald energy   TEWEN  =    -12901.57693327
  -Hartree energ DENC   =     -2855.60785864
  -exchange      EXHF   =         0.00000000
  -V(xc)+E(xc)   XCENC  =      -995.96582484
  PAW double counting   =     12741.82587617   -11476.22345381
  entropy T*S    EENTRO =        -0.00320740
  eigenvalues    EBANDS =      1655.78817943
  atomic energy  EATOM  =     12697.67401269
  ---------------------------------------------------
  free energy    TOTEN  =      -335.70306913 eV

  energy without entropy =     -335.69986173  energy(sigma->0) =     -335.70200000


--------------------------------------------------------------------------------------------------------




--------------------------------------- Iteration      1(   4)  ---------------------------------------


    TRIAL :  cpu time   28.2744: real time   28.4502
    CORREC:  cpu time    0.0052: real time    0.0054
    --------------------------------------------
      LOOP:  cpu time   28.2805: real time   28.4584

 eigenvalue-minimisations  : 18160
 total energy-change (2. order) :-0.5877387E+02  (-0.5421966E+02)
 number of electron     270.0000000 magnetization     -21.0000000
 augmentation part      270.0000000 magnetization     -21.0000000

 Free energy of the ion-electron system (eV)
  ---------------------------------------------------
  alpha Z        PSCENC =       798.38614055
  Ewald energy   TEWEN  =    -12901.57693327
  -Hartree energ DENC   =     -2855.60785864
  -exchange      EXHF   =         0.00000000
  -V(xc)+E(xc)   XCENC  =      -995.96582484
  PAW double counting   =     12741.82587617   -11476.22345381
  entropy T*S    EENTRO =         0.00982676
  eigenvalues    EBANDS =      1597.00127952
  atomic energy  EATOM  =     12697.67401269
  ---------------------------------------------------
  free energy    TOTEN  =      -394.47693488 eV

  energy without entropy =     -394.48676164  energy(sigma->0) =     -394.48021047


--------------------------------------------------------------------------------------------------------




--------------------------------------- Iteration      1(   5)  ---------------------------------------


    TRIAL :  cpu time   29.4725: real time   30.4953
    CORREC:  cpu time    0.0052: real time    0.0061
    --------------------------------------------
      LOOP:  cpu time   29.4794: real time   30.5056

 eigenvalue-minimisations  : 18920
 total energy-change (2. order) :-0.8484189E+01  (-0.8006753E+01)
 number of electron     270.0000000 magnetization     -21.0000000
 augmentation part      270.0000000 magnetization     -21.0000000

 Free energy of the ion-electron system (eV)
  ---------------------------------------------------
  alpha Z        PSCENC =       798.38614055
  Ewald energy   TEWEN  =    -12901.57693327
  -Hartree energ DENC   =     -2855.60785864
  -exchange      EXHF   =         0.00000000
  -V(xc)+E(xc)   XCENC  =      -995.96582484
  PAW double counting   =     12741.82587617   -11476.22345381
  entropy T*S    EENTRO =         0.02241947
  eigenvalues    EBANDS =      1588.50449795
  atomic energy  EATOM  =     12697.67401269
  ---------------------------------------------------
  free energy    TOTEN  =      -402.96112373 eV

  energy without entropy =     -402.98354321  energy(sigma->0) =     -402.96859689


--------------------------------------------------------------------------------------------------------




--------------------------------------- Iteration      1(   6)  ---------------------------------------


    TRIAL :  cpu time   29.1673: real time   29.2833
    CORREC:  cpu time    0.0055: real time    0.0056
    --------------------------------------------
      LOOP:  cpu time   29.1737: real time   29.2924

 eigenvalue-minimisations  : 18792
 total energy-change (2. order) :-0.1085017E+01  (-0.1032499E+01)
 number of electron     270.0000000 magnetization     -21.0000000
 augmentation part      270.0000000 magnetization     -21.0000000

 Free energy of the ion-electron system (eV)
  ---------------------------------------------------
  alpha Z        PSCENC =       798.38614055
  Ewald energy   TEWEN  =    -12901.57693327
  -Hartree energ DENC   =     -2855.60785864
  -exchange      EXHF   =         0.00000000
  -V(xc)+E(xc)   XCENC  =      -995.96582484
  PAW double counting   =     12741.82587617   -11476.22345381
  entropy T*S    EENTRO =         0.02183649
  eigenvalues    EBANDS =      1587.42006394
  atomic energy  EATOM  =     12697.67401269
  ---------------------------------------------------
  free energy    TOTEN  =      -404.04614073 eV

  energy without entropy =     -404.06797722  energy(sigma->0) =     -404.05341956


--------------------------------------------------------------------------------------------------------




--------------------------------------- Iteration      1(   7)  ---------------------------------------


    TRIAL :  cpu time   29.7143: real time   30.6472
    CORREC:  cpu time    0.0055: real time    0.0064
    --------------------------------------------
      LOOP:  cpu time   29.7210: real time   30.6580

 eigenvalue-minimisations  : 19136
 total energy-change (2. order) :-0.1968992E+00  (-0.1883213E+00)
 number of electron     270.0000000 magnetization     -21.0000000
 augmentation part      270.0000000 magnetization     -21.0000000

 Free energy of the ion-electron system (eV)
  ---------------------------------------------------
  alpha Z        PSCENC =       798.38614055
  Ewald energy   TEWEN  =    -12901.57693327
  -Hartree energ DENC   =     -2855.60785864
  -exchange      EXHF   =         0.00000000
  -V(xc)+E(xc)   XCENC  =      -995.96582484
  PAW double counting   =     12741.82587617   -11476.22345381
  entropy T*S    EENTRO =         0.02417955
  eigenvalues    EBANDS =      1587.22082170
  atomic energy  EATOM  =     12697.67401269
  ---------------------------------------------------
  free energy    TOTEN  =      -404.24303991 eV

  energy without entropy =     -404.26721946  energy(sigma->0) =     -404.25109976


--------------------------------------------------------------------------------------------------------




--------------------------------------- Iteration      1(   8)  ---------------------------------------


    TRIAL :  cpu time   28.8221: real time   28.9560
    CORREC:  cpu time    0.0055: real time    0.0056
    CHARGE:  cpu time    1.1724: real time    1.1724
    --------------------------------------------
      LOOP:  cpu time   30.0033: real time   30.1378

 eigenvalue-minimisations  : 18480
 total energy-change (2. order) :-0.4418690E-01  (-0.4228540E-01)
 number of electron     269.9999995 magnetization     -14.4331611
 augmentation part       64.2492700 magnetization      -8.3703075

 Free energy of the ion-electron system (eV)
  ---------------------------------------------------
  alpha Z        PSCENC =       798.38614055
  Ewald energy   TEWEN  =    -12901.57693327
  -Hartree energ DENC   =     -2855.60785864
  -exchange      EXHF   =         0.00000000
  -V(xc)+E(xc)   XCENC  =      -995.96582484
  PAW double counting   =     12741.82587617   -11476.22345381
  entropy T*S    EENTRO =         0.02537610
  eigenvalues    EBANDS =      1587.17543825
  atomic energy  EATOM  =     12697.67401269
  ---------------------------------------------------
  free energy    TOTEN  =      -404.28722681 eV

  energy without entropy =     -404.31260291  energy(sigma->0) =     -404.29568551


--------------------------------------------------------------------------------------------------------




--------------------------------------- Iteration      1(   9)  ---------------------------------------


    POTLOK:  cpu time    0.3969: real time    0.3969
    SETDIJ:  cpu time    0.4806: real time    0.4806
    TRIAL :  cpu time    9.6320: real time   10.4808
    CORREC:  cpu time    3.5620: real time    3.6734
    CHARGE:  cpu time    1.1720: real time    1.1720
    --------------------------------------------
      LOOP:  cpu time   15.2497: real time   16.2102

 eigenvalue-minimisations  :     0
 total energy-change (2. order) : 0.2985196E+03  (-0.2199386E+03)
 number of electron     269.9999993 magnetization     -15.3093007
 augmentation part       82.8191401 magnetization     -10.1848590

 Free energy of the ion-electron system (eV)
  ---------------------------------------------------
  alpha Z        PSCENC =       798.38614055
  Ewald energy   TEWEN  =    -12901.57693327
  -Hartree energ DENC   =     -1274.59612859
  -exchange      EXHF   =         0.00000000
  -V(xc)+E(xc)   XCENC  =     -1041.55333842
  PAW double counting   =     19173.74652031   -17754.31481400
  entropy T*S    EENTRO =         0.02061633
  eigenvalues    EBANDS =       196.44156572
  atomic energy  EATOM  =     12697.67401269
  ---------------------------------------------------
  free energy    TOTEN  =      -105.76759891 eV

  energy without entropy =     -105.78821524  energy(sigma->0) =     -105.77447102


--------------------------------------------------------------------------------------------------------




--------------------------------------- Iteration      1(  10)  ---------------------------------------


    POTLOK:  cpu time    0.3923: real time    0.3923
    SETDIJ:  cpu time    0.4917: real time    0.4917
    TRIAL :  cpu time    9.6645: real time    9.7559
    CORREC:  cpu time    3.5864: real time    3.5959
    CHARGE:  cpu time    1.1925: real time    1.1955
    --------------------------------------------
      LOOP:  cpu time   15.3307: real time   15.4345

 eigenvalue-minimisations  :     0
 total energy-change (2. order) :-0.2135839E+03  (-0.1189050E+02)
 number of electron     269.9999993 magnetization     -15.5194302
 augmentation part       86.9009442 magnetization     -10.5023645

 Free energy of the ion-electron system (eV)
  ---------------------------------------------------
  alpha Z        PSCENC =       798.38614055
  Ewald energy   TEWEN  =    -12901.57693327
  -Hartree energ DENC   =     -2122.45186592
  -exchange      EXHF   =         0.00000000
  -V(xc)+E(xc)   XCENC  =     -1012.02377132
  PAW double counting   =     20677.54842465   -19442.02008654
  entropy T*S    EENTRO =         0.00952261
  eigenvalues    EBANDS =       985.09195687
  atomic energy  EATOM  =     12697.67401269
  ---------------------------------------------------
  free energy    TOTEN  =      -319.35150596 eV

  energy without entropy =     -319.36102857  energy(sigma->0) =     -319.35468016


--------------------------------------------------------------------------------------------------------




--------------------------------------- Iteration      1(  11)  ---------------------------------------


    POTLOK:  cpu time    0.3923: real time    0.3923
    SETDIJ:  cpu time    0.4587: real time    0.4587
    TRIAL :  cpu time    9.6314: real time    9.7062
    CORREC:  cpu time    3.6048: real time    3.6141
    CHARGE:  cpu time    1.1794: real time    1.1858
    --------------------------------------------
      LOOP:  cpu time   15.2698: real time   15.3604

 eigenvalue-minimisations  :     0
 total energy-change (2. order) :-0.1138258E+02  (-0.1196999E+02)
 number of electron     269.9999993 magnetization     -15.5548163
 augmentation part       89.0872280 magnetization     -10.8697818

 Free energy of the ion-electron system (eV)
  ---------------------------------------------------
  alpha Z        PSCENC =       798.38614055
  Ewald energy   TEWEN  =    -12901.57693327
  -Hartree energ DENC   =     -2367.58469699
  -exchange      EXHF   =         0.00000000
  -V(xc)+E(xc)   XCENC  =     -1003.02451770
  PAW double counting   =     21619.02123542   -20423.51624470
  entropy T*S    EENTRO =         0.00832236
  eigenvalues    EBANDS =      1249.87739728
  atomic energy  EATOM  =     12697.67401269
  ---------------------------------------------------
  free energy    TOTEN  =      -330.73408411 eV

  energy without entropy =     -330.74240647  energy(sigma->0) =     -330.73685823


--------------------------------------------------------------------------------------------------------




--------------------------------------- Iteration      1(  12)  ---------------------------------------


    POTLOK:  cpu time    0.3924: real time    0.3924
    SETDIJ:  cpu time    0.4995: real time    0.4994
    TRIAL :  cpu time   10.1880: real time   10.1976
    CORREC:  cpu time    3.5714: real time    3.5868
    CHARGE:  cpu time    1.2024: real time    1.2024
    --------------------------------------------
      LOOP:  cpu time   15.8571: real time   15.8820

 eigenvalue-minimisations  :     0
 total energy-change (2. order) :-0.1195961E+02  (-0.1034880E+02)
 number of electron     269.9999993 magnetization     -15.8673217
 augmentation part       86.7473490 magnetization     -10.9831995

 Free energy of the ion-electron system (eV)
  ---------------------------------------------------
  alpha Z        PSCENC =       798.38614055
  Ewald energy   TEWEN  =    -12901.57693327
  -Hartree energ DENC   =     -2565.01721331
  -exchange      EXHF   =         0.00000000
  -V(xc)+E(xc)   XCENC  =      -996.54192521
  PAW double counting   =     21803.90303751   -20614.28894107
  entropy T*S    EENTRO =        -0.01238862
  eigenvalues    EBANDS =      1434.75981001
  atomic energy  EATOM  =     12697.67401269
  ---------------------------------------------------
  free energy    TOTEN  =      -342.69368974 eV

  energy without entropy =     -342.68130111  energy(sigma->0) =     -342.68956020


--------------------------------------------------------------------------------------------------------




--------------------------------------- Iteration      1(  13)  ---------------------------------------


    POTLOK:  cpu time    0.3929: real time    0.3929
    SETDIJ:  cpu time    0.4843: real time    0.4842
    TRIAL :  cpu time    9.6373: real time   10.5325
    CORREC:  cpu time    3.6217: real time    3.6455
    CHARGE:  cpu time    1.1972: real time    1.1973
    --------------------------------------------
      LOOP:  cpu time   15.3398: real time   16.2598

 eigenvalue-minimisations  :     0
 total energy-change (2. order) :-0.1022707E+02  (-0.9467451E+00)
 number of electron     269.9999993 magnetization     -16.1179987
 augmentation part       86.1022448 magnetization     -10.9620353

 Free energy of the ion-electron system (eV)
  ---------------------------------------------------
  alpha Z        PSCENC =       798.38614055
  Ewald energy   TEWEN  =    -12901.57693327
  -Hartree energ DENC   =     -2517.50646253
  -exchange      EXHF   =         0.00000000
  -V(xc)+E(xc)   XCENC  =      -999.05389695
  PAW double counting   =     21296.64961632   -20058.15736000
  entropy T*S    EENTRO =        -0.01523152
  eigenvalues    EBANDS =      1330.67650727
  atomic energy  EATOM  =     12697.67401269
  ---------------------------------------------------
  free energy    TOTEN  =      -352.92076454 eV

  energy without entropy =     -352.90553302  energy(sigma->0) =     -352.91568737


--------------------------------------------------------------------------------------------------------




--------------------------------------- Iteration      1(  14)  ---------------------------------------


    POTLOK:  cpu time    0.3887: real time    0.4377
    SETDIJ:  cpu time    0.4515: real time    0.4515
    TRIAL :  cpu time    9.6201: real time    9.6569
    CORREC:  cpu time    3.6104: real time    3.6661
    CHARGE:  cpu time    1.1864: real time    1.1867
    --------------------------------------------
      LOOP:  cpu time   15.2592: real time   15.4030

 eigenvalue-minimisations  :     0
 total energy-change (2. order) :-0.9413522E+00  (-0.1280293E+01)
 number of electron     269.9999993 magnetization     -16.0215495
 augmentation part       85.9575811 magnetization     -10.8412811

 Free energy of the ion-electron system (eV)
  ---------------------------------------------------
  alpha Z        PSCENC =       798.38614055
  Ewald energy   TEWEN  =    -12901.57693327
  -Hartree energ DENC   =     -2481.33462541
  -exchange      EXHF   =         0.00000000
  -V(xc)+E(xc)   XCENC  =     -1000.45020795
  PAW double counting   =     20857.32034614   -19608.14869225
  entropy T*S    EENTRO =        -0.01816068
  eigenvalues    EBANDS =      1284.28307423
  atomic energy  EATOM  =     12697.67401269
  ---------------------------------------------------
  free energy    TOTEN  =      -353.86211679 eV

  energy without entropy =     -353.84395611  energy(sigma->0) =     -353.85606323


--------------------------------------------------------------------------------------------------------




--------------------------------------- Iteration      1(  15)  ---------------------------------------


    POTLOK:  cpu time    0.3920: real time    0.3921
    SETDIJ:  cpu time    0.4612: real time    0.4612
    TRIAL :  cpu time    9.6288: real time    9.7372
    CORREC:  cpu time    3.5790: real time    3.6016
    CHARGE:  cpu time    1.1956: real time    1.1959
    --------------------------------------------
      LOOP:  cpu time   15.2605: real time   15.3924

 eigenvalue-minimisations  :     0
 total energy-change (2. order) :-0.1278672E+01  (-0.5714009E+00)
 number of electron     269.9999993 magnetization     -16.0032410
 augmentation part       86.7742247 magnetization     -10.8600421

 Free energy of the ion-electron system (eV)
  ---------------------------------------------------
  alpha Z        PSCENC =       798.38614055
  Ewald energy   TEWEN  =    -12901.57693327
  -Hartree energ DENC   =     -2459.08687695
  -exchange      EXHF   =         0.00000000
  -V(xc)+E(xc)   XCENC  =     -1001.44961629
  PAW double counting   =     20004.20055235   -18747.55665765
  entropy T*S    EENTRO =        -0.02227058
  eigenvalues    EBANDS =      1254.28675047
  atomic energy  EATOM  =     12697.67401269
  ---------------------------------------------------
  free energy    TOTEN  =      -355.14078879 eV

  energy without entropy =     -355.11851821  energy(sigma->0) =     -355.13336527


--------------------------------------------------------------------------------------------------------




--------------------------------------- Iteration      1(  16)  ---------------------------------------


    POTLOK:  cpu time    0.3923: real time    0.3923
    SETDIJ:  cpu time    0.4828: real time    0.4828
    TRIAL :  cpu time    9.5973: real time    9.6072
    CORREC:  cpu time    3.5595: real time    3.5876
    CHARGE:  cpu time    1.4372: real time    2.1099
    --------------------------------------------
      LOOP:  cpu time   15.4716: real time   16.1831

 eigenvalue-minimisations  :     0
 total energy-change (2. order) :-0.5733402E+00  (-0.2246863E+00)
 number of electron     269.9999992 magnetization     -16.1252896
 augmentation part       87.2129340 magnetization     -10.9456118

 Free energy of the ion-electron system (eV)
  ---------------------------------------------------
  alpha Z        PSCENC =       798.38614055
  Ewald energy   TEWEN  =    -12901.57693327
  -Hartree energ DENC   =     -2492.78820053
  -exchange      EXHF   =         0.00000000
  -V(xc)+E(xc)   XCENC  =     -1000.21001970
  PAW double counting   =     19685.13763455   -18435.23838664
  entropy T*S    EENTRO =        -0.02259610
  eigenvalues    EBANDS =      1292.92389395
  atomic energy  EATOM  =     12697.67401269
  ---------------------------------------------------
  free energy    TOTEN  =      -355.71412898 eV

  energy without entropy =     -355.69153288  energy(sigma->0) =     -355.70659695


--------------------------------------------------------------------------------------------------------




--------------------------------------- Iteration      1(  17)  ---------------------------------------


    POTLOK:  cpu time    0.3921: real time    0.3922
    SETDIJ:  cpu time    0.4919: real time    0.4919
    TRIAL :  cpu time    9.6357: real time    9.7998
    CORREC:  cpu time    3.6048: real time    3.6647
    CHARGE:  cpu time    1.1521: real time    1.1742
    --------------------------------------------
      LOOP:  cpu time   15.2800: real time   15.5269

 eigenvalue-minimisations  :     0
 total energy-change (2. order) :-0.2258379E+00  (-0.3556974E+00)
 number of electron     269.9999992 magnetization     -16.0860308
 augmentation part       87.2534149 magnetization     -11.0627710

 Free energy of the ion-electron system (eV)
  ---------------------------------------------------
  alpha Z        PSCENC =       798.38614055
  Ewald energy   TEWEN  =    -12901.57693327
  -Hartree energ DENC   =     -2512.11154925
  -exchange      EXHF   =         0.00000000
  -V(xc)+E(xc)   XCENC  =      -999.38667685
  PAW double counting   =     19589.82762448   -18344.23369013
  entropy T*S    EENTRO =        -0.02427770
  eigenvalues    EBANDS =      1315.50370099
  atomic energy  EATOM  =     12697.67401269
  ---------------------------------------------------
  free energy    TOTEN  =      -355.93996689 eV

  energy without entropy =     -355.91568920  energy(sigma->0) =     -355.93187433


--------------------------------------------------------------------------------------------------------




--------------------------------------- Iteration      1(  18)  ---------------------------------------


    POTLOK:  cpu time    0.3913: real time    0.3913
    SETDIJ:  cpu time    0.4841: real time    0.4841
    TRIAL :  cpu time    9.6178: real time    9.6429
    CORREC:  cpu time    3.5536: real time    3.6361
    CHARGE:  cpu time    1.1957: real time    1.2037
    --------------------------------------------
      LOOP:  cpu time   15.2440: real time   15.3601

 eigenvalue-minimisations  :     0
 total energy-change (2. order) :-0.3557145E+00  (-0.1227825E+00)
 number of electron     269.9999992 magnetization     -16.1222858
 augmentation part       86.9802967 magnetization     -11.1166852

 Free energy of the ion-electron system (eV)
  ---------------------------------------------------
  alpha Z        PSCENC =       798.38614055
  Ewald energy   TEWEN  =    -12901.57693327
  -Hartree energ DENC   =     -2509.62538514
  -exchange      EXHF   =         0.00000000
  -V(xc)+E(xc)   XCENC  =      -999.04505164
  PAW double counting   =     19465.35284669   -18220.04123240
  entropy T*S    EENTRO =        -0.02486374
  eigenvalues    EBANDS =      1312.60419883
  atomic energy  EATOM  =     12697.67401269
  ---------------------------------------------------
  free energy    TOTEN  =      -356.29568138 eV

  energy without entropy =     -356.27081763  energy(sigma->0) =     -356.28739346


--------------------------------------------------------------------------------------------------------




--------------------------------------- Iteration      1(  19)  ---------------------------------------


    POTLOK:  cpu time    0.3924: real time    0.3924
    SETDIJ:  cpu time    0.4996: real time    0.4996
    TRIAL :  cpu time    9.6418: real time    9.7686
    CORREC:  cpu time    3.5805: real time    3.5903
    CHARGE:  cpu time    1.1671: real time    1.1673
    --------------------------------------------
      LOOP:  cpu time   15.2837: real time   15.4210

 eigenvalue-minimisations  :     0
 total energy-change (2. order) :-0.1224829E+00  (-0.1175110E+00)
 number of electron     269.9999992 magnetization     -16.2059874
 augmentation part       86.7042510 magnetization     -11.2011206

 Free energy of the ion-electron system (eV)
  ---------------------------------------------------
  alpha Z        PSCENC =       798.38614055
  Ewald energy   TEWEN  =    -12901.57693327
  -Hartree energ DENC   =     -2495.08890872
  -exchange      EXHF   =         0.00000000
  -V(xc)+E(xc)   XCENC  =      -999.39260531
  PAW double counting   =     19423.53478668   -18175.32641837
  entropy T*S    EENTRO =        -0.02493213
  eigenvalues    EBANDS =      1295.39662527
  atomic energy  EATOM  =     12697.67401269
  ---------------------------------------------------
  free energy    TOTEN  =      -356.41816423 eV

  energy without entropy =     -356.39323210  energy(sigma->0) =     -356.40985352


--------------------------------------------------------------------------------------------------------




--------------------------------------- Iteration      1(  20)  ---------------------------------------


    POTLOK:  cpu time    0.4231: real time    0.4231
    SETDIJ:  cpu time    0.4441: real time    0.4441
    TRIAL :  cpu time    9.5668: real time    9.5891
    CORREC:  cpu time    3.5229: real time    4.3415
    CHARGE:  cpu time    1.1773: real time    1.1772
    --------------------------------------------
      LOOP:  cpu time   15.1411: real time   15.9834

 eigenvalue-minimisations  :     0
 total energy-change (2. order) :-0.1174792E+00  (-0.9652831E-01)
 number of electron     269.9999992 magnetization     -16.2303446
 augmentation part       86.7533362 magnetization     -11.2727337

 Free energy of the ion-electron system (eV)
  ---------------------------------------------------
  alpha Z        PSCENC =       798.38614055
  Ewald energy   TEWEN  =    -12901.57693327
  -Hartree energ DENC   =     -2484.26267588
  -exchange      EXHF   =         0.00000000
  -V(xc)+E(xc)   XCENC  =      -999.61964996
  PAW double counting   =     19408.93525239   -18158.18789291
  entropy T*S    EENTRO =        -0.02558847
  eigenvalues    EBANDS =      1282.14103509
  atomic energy  EATOM  =     12697.67401269
  ---------------------------------------------------
  free energy    TOTEN  =      -356.53564343 eV

  energy without entropy =     -356.51005496  energy(sigma->0) =     -356.52711394


--------------------------------------------------------------------------------------------------------




--------------------------------------- Iteration      1(  21)  ---------------------------------------


    POTLOK:  cpu time    0.3931: real time    0.3938
    SETDIJ:  cpu time    0.4821: real time    0.4821
    TRIAL :  cpu time    9.5791: real time    9.7789
    CORREC:  cpu time    3.5817: real time    3.6477
    CHARGE:  cpu time    1.1881: real time    1.2043
    --------------------------------------------
      LOOP:  cpu time   15.2255: real time   15.5103

 eigenvalue-minimisations  :     0
 total energy-change (2. order) :-0.9647943E-01  (-0.5585840E-01)
 number of electron     269.9999992 magnetization     -16.2826525
 augmentation part       86.9463246 magnetization     -11.3301173

 Free energy of the ion-electron system (eV)
  ---------------------------------------------------
  alpha Z        PSCENC =       798.38614055
  Ewald energy   TEWEN  =    -12901.57693327
  -Hartree energ DENC   =     -2490.70566237
  -exchange      EXHF   =         0.00000000
  -V(xc)+E(xc)   XCENC  =      -999.24581330
  PAW double counting   =     19433.60048724   -18183.95981476
  entropy T*S    EENTRO =        -0.02577978
  eigenvalues    EBANDS =      1289.22104882
  atomic energy  EATOM  =     12697.67401269
  ---------------------------------------------------
  free energy    TOTEN  =      -356.63212286 eV

  energy without entropy =     -356.60634307  energy(sigma->0) =     -356.62352960


--------------------------------------------------------------------------------------------------------




--------------------------------------- Iteration      1(  22)  ---------------------------------------


    POTLOK:  cpu time    0.3919: real time    0.3918
    SETDIJ:  cpu time    0.4615: real time    0.4616
    TRIAL :  cpu time    9.6486: real time    9.7662
    CORREC:  cpu time    3.5906: real time    3.6009
    CHARGE:  cpu time    1.1677: real time    1.1679
    --------------------------------------------
      LOOP:  cpu time   15.2647: real time   15.3942

 eigenvalue-minimisations  :     0
 total energy-change (2. order) :-0.5609852E-01  (-0.3257862E-01)
 number of electron     269.9999992 magnetization     -16.3441238
 augmentation part       86.9988059 magnetization     -11.3622517

 Free energy of the ion-electron system (eV)
  ---------------------------------------------------
  alpha Z        PSCENC =       798.38614055
  Ewald energy   TEWEN  =    -12901.57693327
  -Hartree energ DENC   =     -2503.10864877
  -exchange      EXHF   =         0.00000000
  -V(xc)+E(xc)   XCENC  =      -998.73093425
  PAW double counting   =     19463.49996637   -18216.27387050
  entropy T*S    EENTRO =        -0.02609378
  eigenvalues    EBANDS =      1303.46782558
  atomic energy  EATOM  =     12697.67401269
  ---------------------------------------------------
  free energy    TOTEN  =      -356.68822138 eV

  energy without entropy =     -356.66212760  energy(sigma->0) =     -356.67952345


--------------------------------------------------------------------------------------------------------




--------------------------------------- Iteration      1(  23)  ---------------------------------------


    POTLOK:  cpu time    0.4028: real time    0.4029
    SETDIJ:  cpu time    0.4515: real time    0.4516
    TRIAL :  cpu time    9.6206: real time    9.7330
    CORREC:  cpu time    3.5522: real time    3.5663
    CHARGE:  cpu time    1.1865: real time    1.1919
    --------------------------------------------
      LOOP:  cpu time   15.2238: real time   15.3562

 eigenvalue-minimisations  :     0
 total energy-change (2. order) :-0.3258799E-01  (-0.4982370E-01)
 number of electron     269.9999992 magnetization     -16.4347178
 augmentation part       86.9320894 magnetization     -11.4194752

 Free energy of the ion-electron system (eV)
  ---------------------------------------------------
  alpha Z        PSCENC =       798.38614055
  Ewald energy   TEWEN  =    -12901.57693327
  -Hartree energ DENC   =     -2506.43032400
  -exchange      EXHF   =         0.00000000
  -V(xc)+E(xc)   XCENC  =      -998.54712715
  PAW double counting   =     19469.51572958   -18222.85719127
  entropy T*S    EENTRO =        -0.02647897
  eigenvalues    EBANDS =      1307.14097728
  atomic energy  EATOM  =     12697.67401269
  ---------------------------------------------------
  free energy    TOTEN  =      -356.72080936 eV

  energy without entropy =     -356.69433039  energy(sigma->0) =     -356.71198304


--------------------------------------------------------------------------------------------------------




--------------------------------------- Iteration      1(  24)  ---------------------------------------


    POTLOK:  cpu time    0.3917: real time    0.3917
    SETDIJ:  cpu time    0.4667: real time    0.4666
    TRIAL :  cpu time    9.5833: real time   10.3226
    CORREC:  cpu time    3.6131: real time    3.6177
    CHARGE:  cpu time    1.1747: real time    1.2549
    --------------------------------------------
      LOOP:  cpu time   15.2356: real time   16.0607

 eigenvalue-minimisations  :     0
 total energy-change (2. order) :-0.4982770E-01  (-0.4452621E-01)
 number of electron     269.9999992 magnetization     -16.5916986
 augmentation part       86.8619673 magnetization     -11.5347118

 Free energy of the ion-electron system (eV)
  ---------------------------------------------------
  alpha Z        PSCENC =       798.38614055
  Ewald energy   TEWEN  =    -12901.57693327
  -Hartree energ DENC   =     -2502.84354708
  -exchange      EXHF   =         0.00000000
  -V(xc)+E(xc)   XCENC  =      -998.53375659
  PAW double counting   =     19463.40068808   -18215.76874868
  entropy T*S    EENTRO =        -0.02693083
  eigenvalues    EBANDS =      1302.51798621
  atomic energy  EATOM  =     12697.67401269
  ---------------------------------------------------
  free energy    TOTEN  =      -356.77063706 eV

  energy without entropy =     -356.74370623  energy(sigma->0) =     -356.76166012


--------------------------------------------------------------------------------------------------------




--------------------------------------- Iteration      1(  25)  ---------------------------------------


    POTLOK:  cpu time    0.3940: real time    0.4176
    SETDIJ:  cpu time    0.4531: real time    0.4533
    TRIAL :  cpu time    9.6633: real time    9.8174
    CORREC:  cpu time    3.5728: real time    3.6075
    CHARGE:  cpu time    1.1709: real time    1.1711
    --------------------------------------------
      LOOP:  cpu time   15.2580: real time   15.4716

 eigenvalue-minimisations  :     0
 total energy-change (2. order) :-0.4450488E-01  (-0.2604554E-01)
 number of electron     269.9999992 magnetization     -16.6886735
 augmentation part       86.9243545 magnetization     -11.6326615

 Free energy of the ion-electron system (eV)
  ---------------------------------------------------
  alpha Z        PSCENC =       798.38614055
  Ewald energy   TEWEN  =    -12901.57693327
[...]
   45       -0.017  -0.021  -2.371  -2.409
   46        0.014   0.020   2.270   2.304
   47       -0.025  -0.026  -2.385  -2.436
   48       -0.019  -0.018  -2.375  -2.412
   49        0.016   0.016   2.294   2.326
   50       -0.014  -0.015  -2.352  -2.381
   51       -0.017  -0.021  -2.374  -2.412
   52        0.016   0.016   2.293   2.325
   53       -0.014  -0.015  -2.352  -2.381
   54       -0.017  -0.021  -2.368  -2.406
--------------------------------------------------
tot          0.016   0.082 -17.264 -17.165
 
    FORLOC:  cpu time    0.0584: real time    0.0584
    FORNL :  cpu time   16.0228: real time   16.1494
    STRESS:  cpu time   24.3256: real time   24.4372
    FORCOR:  cpu time    0.4390: real time    0.4389
    OFIELD:  cpu time    0.0022: real time    0.0022

  FORCE on cell =-STRESS in cart. coord.  units (eV):
  Direction    XX          YY          ZZ          XY          YZ          ZX
  --------------------------------------------------------------------------------------
  Alpha Z   798.38614   798.38614   798.38614
  Ewald   -4053.61603 -4053.61603 -4794.40593    -0.00000    -0.00000    -0.00000
  Hartree  1084.80135  1084.80135   331.99735    -0.00000    -0.00000    -0.00000
  E(xc)   -1141.91243 -1141.91243 -1139.81297    -0.00000    -0.00000    -0.00000
  Local     367.85632   367.85632  1907.22393    -0.00000    -0.00000    -0.00000
  n-local  -172.13997  -169.65158  -175.45569     0.27169    -0.16769    -0.28685
  augment   785.08939   785.08939   766.92450     0.00000     0.00001     0.00001
  Kinetic  2328.51836  2344.01078  2307.39551    -2.39159    -1.68856    -1.73936
  Fock        0.00000     0.00000     0.00000     0.00000     0.00000     0.00000
  -------------------------------------------------------------------------------------
  Total       5.97354     5.97354     2.25283     0.00000     0.00000     0.00000
  in kB      13.48151    13.48151     5.08435     0.00000     0.00000     0.00000
  external pressure =       10.68 kB  Pullay stress =        0.00 kB


 VOLUME and BASIS-vectors are now :
 -----------------------------------------------------------------------------
  energy-cutoff  :      404.80
  volume of cell :      709.91
      direct lattice vectors                 reciprocal lattice vectors
     8.250148166  0.000000000  0.000000000     0.121209944  0.000000000  0.000000000
     0.000000000  8.250148166  0.000000000     0.000000000  0.121209944  0.000000000
     0.000000000  0.000000000 10.429911392     0.000000000  0.000000000  0.095878092

  length of vectors
     8.250148166  8.250148166 10.429911392     0.121209944  0.121209944  0.095878092


 FORCES acting on ions:
    Electron-Ion                     Ewald-Force                    Non-Local-Force
 -----------------------------------------------------------------------------------------------
   -.525E-02 -.525E-02 0.402E-01   -.239E-08 -.239E-08 -.210E-08   0.101E-01 0.101E-01 -.175E-01
   -.108E+00 -.108E+00 -.127E+00   -.239E-08 -.239E-08 0.171E-08   0.879E-01 0.879E-01 0.430E-01
   -.567E-02 -.567E-02 0.273E-01   -.239E-08 -.239E-08 0.861E-08   -.172E-01 -.172E-01 0.194E-01
   -.525E-02 0.525E-02 0.402E-01   -.239E-08 -.802E-09 -.210E-08   0.101E-01 -.101E-01 -.175E-01
   -.108E+00 0.108E+00 -.127E+00   -.239E-08 -.802E-09 0.171E-08   0.879E-01 -.879E-01 0.430E-01
   -.567E-02 0.567E-02 0.273E-01   -.239E-08 -.802E-09 0.861E-08   -.172E-01 0.172E-01 0.194E-01
   -.941E-02 -.329E-08 0.143E+00   -.239E-08 0.631E-08 -.210E-08   0.498E-02 0.108E-18 -.594E-01
   0.171E-01 -.329E-08 -.736E-01   -.239E-08 0.631E-08 0.171E-08   -.672E-02 0.108E-18 0.375E-01
   0.287E-01 -.328E-08 -.169E-01   -.239E-08 0.631E-08 0.861E-08   -.333E-03 0.305E-19 -.133E-01
   0.525E-02 -.525E-02 0.402E-01   -.802E-09 -.239E-08 -.210E-08   -.101E-01 0.101E-01 -.175E-01
   0.108E+00 -.108E+00 -.127E+00   -.802E-09 -.239E-08 0.171E-08   -.879E-01 0.879E-01 0.430E-01
   0.567E-02 -.567E-02 0.273E-01   -.803E-09 -.239E-08 0.861E-08   0.172E-01 -.172E-01 0.194E-01
   0.525E-02 0.525E-02 0.402E-01   -.802E-09 -.802E-09 -.210E-08   -.101E-01 -.101E-01 -.175E-01
   0.108E+00 0.108E+00 -.127E+00   -.802E-09 -.802E-09 0.171E-08   -.879E-01 -.879E-01 0.430E-01
   0.567E-02 0.567E-02 0.273E-01   -.803E-09 -.802E-09 0.861E-08   0.172E-01 0.172E-01 0.194E-01
   0.941E-02 -.329E-08 0.143E+00   -.802E-09 0.631E-08 -.210E-08   -.498E-02 -.542E-19 -.594E-01
   -.171E-01 -.329E-08 -.736E-01   -.802E-09 0.631E-08 0.171E-08   0.672E-02 -.217E-18 0.375E-01
   -.287E-01 -.328E-08 -.169E-01   -.803E-09 0.631E-08 0.861E-08   0.333E-03 0.271E-19 -.133E-01
   -.329E-08 -.941E-02 0.143E+00   0.631E-08 -.239E-08 -.210E-08   -.108E-18 0.498E-02 -.594E-01
   -.329E-08 0.171E-01 -.736E-01   0.631E-08 -.239E-08 0.171E-08   -.542E-19 -.672E-02 0.375E-01
   -.328E-08 0.287E-01 -.169E-01   0.631E-08 -.239E-08 0.861E-08   0.108E-18 -.333E-03 -.133E-01
   -.329E-08 0.941E-02 0.143E+00   0.631E-08 -.802E-09 -.210E-08   0.102E-19 -.498E-02 -.594E-01
   -.329E-08 -.171E-01 -.736E-01   0.631E-08 -.802E-09 0.171E-08   0.000E+00 0.672E-02 0.375E-01
   -.328E-08 -.287E-01 -.169E-01   0.631E-08 -.802E-09 0.861E-08   0.108E-18 0.333E-03 -.133E-01
   -.329E-08 -.329E-08 0.949E-01   0.631E-08 0.631E-08 -.210E-08   0.000E+00 -.678E-20 -.622E-01
   -.329E-08 -.329E-08 -.112E+00   0.631E-08 0.631E-08 0.171E-08   0.000E+00 -.136E-19 0.826E-01
   -.329E-08 -.329E-08 0.166E-01   0.631E-08 0.631E-08 0.861E-08   0.000E+00 -.186E-19 -.393E-01
   0.482E-08 0.482E-08 0.270E+00   -.169E-07 -.169E-07 -.180E-07   0.000E+00 0.678E-20 -.423E+00
   0.476E-08 0.476E-08 -.278E+00   -.169E-07 -.169E-07 -.170E-08   0.000E+00 0.173E-17 0.212E+00
   0.486E-08 0.486E-08 0.253E+00   -.169E-07 -.169E-07 0.115E-07   0.867E-18 0.173E-17 -.215E+00
   0.486E-08 0.559E-01 -.143E+00   -.169E-07 0.802E-09 -.180E-07   0.434E-18 -.294E-01 0.112E+00
   0.488E-08 0.309E+00 0.589E-01   -.169E-07 0.802E-09 -.170E-08   0.000E+00 -.227E+00 -.103E+00
   0.483E-08 -.617E-01 -.511E-01   -.169E-07 0.802E-09 0.115E-07   0.000E+00 -.304E-01 0.178E+00
   0.486E-08 -.559E-01 -.143E+00   -.169E-07 0.130E-07 -.180E-07   -.651E-18 0.294E-01 0.112E+00
   0.488E-08 -.309E+00 0.589E-01   -.169E-07 0.130E-07 -.170E-08   0.108E-18 0.227E+00 -.103E+00
   0.483E-08 0.617E-01 -.511E-01   -.169E-07 0.130E-07 0.115E-07   0.000E+00 0.304E-01 0.178E+00
   0.559E-01 0.486E-08 -.143E+00   0.802E-09 -.169E-07 -.180E-07   -.294E-01 0.434E-18 0.112E+00
   0.309E+00 0.488E-08 0.589E-01   0.802E-09 -.169E-07 -.170E-08   -.227E+00 -.542E-18 -.103E+00
   -.617E-01 0.484E-08 -.511E-01   0.802E-09 -.169E-07 0.115E-07   -.304E-01 0.000E+00 0.178E+00
   -.190E-01 -.190E-01 0.145E-01   0.802E-09 0.802E-09 -.180E-07   -.217E-01 -.217E-01 -.156E-01
   -.112E+00 -.112E+00 -.393E-01   0.802E-09 0.802E-09 -.170E-08   0.103E+00 0.103E+00 -.831E-01
   -.298E-01 -.298E-01 0.528E-01   0.802E-09 0.802E-09 0.115E-07   0.143E-01 0.143E-01 0.690E-01
   -.190E-01 0.190E-01 0.145E-01   0.802E-09 0.130E-07 -.180E-07   -.217E-01 0.217E-01 -.156E-01
   -.112E+00 0.112E+00 -.393E-01   0.802E-09 0.130E-07 -.170E-08   0.103E+00 -.103E+00 -.831E-01
   -.298E-01 0.298E-01 0.528E-01   0.802E-09 0.130E-07 0.115E-07   0.143E-01 -.143E-01 0.690E-01
   -.559E-01 0.486E-08 -.143E+00   0.130E-07 -.169E-07 -.180E-07   0.294E-01 -.325E-18 0.112E+00
   -.309E+00 0.488E-08 0.589E-01   0.130E-07 -.169E-07 -.170E-08   0.227E+00 0.434E-18 -.103E+00
   0.617E-01 0.483E-08 -.511E-01   0.130E-07 -.169E-07 0.115E-07   0.304E-01 0.325E-18 0.178E+00
   0.190E-01 -.190E-01 0.145E-01   0.130E-07 0.802E-09 -.180E-07   0.217E-01 -.217E-01 -.156E-01
   0.112E+00 -.112E+00 -.393E-01   0.130E-07 0.802E-09 -.170E-08   -.103E+00 0.103E+00 -.831E-01
   0.298E-01 -.298E-01 0.528E-01   0.130E-07 0.802E-09 0.115E-07   -.143E-01 0.143E-01 0.690E-01
   0.190E-01 0.190E-01 0.145E-01   0.130E-07 0.130E-07 -.180E-07   0.217E-01 0.217E-01 -.156E-01
   0.112E+00 0.112E+00 -.393E-01   0.130E-07 0.130E-07 -.170E-08   -.103E+00 -.103E+00 -.831E-01
   0.298E-01 0.298E-01 0.528E-01   0.130E-07 0.130E-07 0.115E-07   -.143E-01 -.143E-01 0.690E-01
 -----------------------------------------------------------------------------------------------
   -.404E-07 -.404E-07 -.227E+00   -.614E-13 -.142E-13 0.128E-13   -.694E-17 -.763E-16 0.224E+00
 
 
 POSITION                                       TOTAL-FORCE (eV/Angst)
 -----------------------------------------------------------------------------------
      0.00000      0.00000      0.00000         0.004035      0.004035      0.023997
      0.00000      0.00000      3.47664        -0.027603     -0.027603     -0.086536
      0.00000      0.00000      6.95327        -0.020757     -0.020757      0.043958
      0.00000      2.75005      0.00000         0.004035     -0.004035      0.023997
      0.00000      2.75005      3.47664        -0.027603      0.027603     -0.086536
      0.00000      2.75005      6.95327        -0.020757      0.020757      0.043958
      0.00000      5.50010      0.00000        -0.004766     -0.000000      0.089838
      0.00000      5.50010      3.47664         0.011401     -0.000000     -0.039269
      0.00000      5.50010      6.95327         0.028919     -0.000000     -0.029431
      2.75005      0.00000      0.00000        -0.004035      0.004035      0.023997
      2.75005      0.00000      3.47664         0.027603     -0.027603     -0.086536
      2.75005      0.00000      6.95327         0.020757     -0.020757      0.043958
      2.75005      2.75005      0.00000        -0.004035     -0.004035      0.023997
      2.75005      2.75005      3.47664         0.027603      0.027603     -0.086536
      2.75005      2.75005      6.95327         0.020757      0.020757      0.043958
      2.75005      5.50010      0.00000         0.004766     -0.000000      0.089838
      2.75005      5.50010      3.47664        -0.011401     -0.000000     -0.039269
      2.75005      5.50010      6.95327        -0.028919     -0.000000     -0.029431
      5.50010      0.00000      0.00000         0.000000     -0.004766      0.089838
      5.50010      0.00000      3.47664         0.000000      0.011401     -0.039269
      5.50010      0.00000      6.95327         0.000000      0.028919     -0.029431
      5.50010      2.75005      0.00000         0.000000      0.004766      0.089838
      5.50010      2.75005      3.47664         0.000000     -0.011401     -0.039269
      5.50010      2.75005      6.95327         0.000000     -0.028919     -0.029431
      5.50010      5.50010      0.00000         0.000000     -0.000000      0.038050
      5.50010      5.50010      3.47664         0.000000     -0.000000     -0.036925
      5.50010      5.50010      6.95327         0.000000     -0.000000     -0.019431
      1.37502      1.37502      1.73832         0.000000     -0.000000     -0.143771
      1.37502      1.37502      5.21496         0.000000     -0.000000     -0.071287
      1.37502      1.37502      8.69159         0.000000     -0.000000      0.042361
      1.37502      4.12507      1.73832         0.000000      0.025592     -0.033757
      1.37502      4.12507      5.21496         0.000000      0.085632     -0.039191
      1.37502      4.12507      8.69159         0.000000     -0.090022      0.118088
      1.37502      6.87512      1.73832         0.000000     -0.025592     -0.033757
      1.37502      6.87512      5.21496         0.000000     -0.085632     -0.039191
      1.37502      6.87512      8.69159         0.000000      0.090022      0.118088
      4.12507      1.37502      1.73832         0.025592     -0.000000     -0.033757
      4.12507      1.37502      5.21496         0.085632     -0.000000     -0.039191
      4.12507      1.37502      8.69159        -0.090022     -0.000000      0.118088
      4.12507      4.12507      1.73832        -0.040902     -0.040902      0.000541
      4.12507      4.12507      5.21496        -0.011115     -0.011115     -0.114670
      4.12507      4.12507      8.69159        -0.016073     -0.016073      0.114182
      4.12507      6.87512      1.73832        -0.040902      0.040902      0.000541
      4.12507      6.87512      5.21496        -0.011115      0.011115     -0.114670
      4.12507      6.87512      8.69159        -0.016073      0.016073      0.114182
      6.87512      1.37502      1.73832        -0.025592     -0.000000     -0.033757
      6.87512      1.37502      5.21496        -0.085632     -0.000000     -0.039191
      6.87512      1.37502      8.69159         0.090022     -0.000000      0.118088
      6.87512      4.12507      1.73832         0.040902     -0.040902      0.000541
      6.87512      4.12507      5.21496         0.011115     -0.011115     -0.114670
      6.87512      4.12507      8.69159         0.016073     -0.016073      0.114182
      6.87512      6.87512      1.73832         0.040902      0.040902      0.000541
      6.87512      6.87512      5.21496         0.011115      0.011115     -0.114670
      6.87512      6.87512      8.69159         0.016073      0.016073      0.114182
 -----------------------------------------------------------------------------------
    total drift:                               -0.000000     -0.000000     -0.002706


--------------------------------------------------------------------------------------------------------



  FREE ENERGIE OF THE ION-ELECTRON SYSTEM (eV)
  ---------------------------------------------------
  free  energy   TOTEN  =      -356.94596954 eV

  energy  without entropy=     -356.91471677  energy(sigma->0) =     -356.93555195
 


--------------------------------------------------------------------------------------------------------


    POTLOK:  cpu time    1.6959: real time    1.7287


--------------------------------------------------------------------------------------------------------


     LOOP+:  cpu time 1156.1092: real time 1181.0011
    4ORBIT:  cpu time    0.0000: real time    0.0000
 


 total charge     
 
# of ion       s       p       d       tot
------------------------------------------
    1        0.405   0.427   0.000   0.832
    2        0.406   0.428   0.000   0.834
    3        0.404   0.429   0.000   0.834
    4        0.405   0.427   0.000   0.832
    5        0.406   0.428   0.000   0.834
    6        0.404   0.430   0.000   0.834
    7        0.405   0.427   0.000   0.832
    8        0.405   0.427   0.000   0.832
    9        0.404   0.429   0.000   0.833
   10        0.405   0.427   0.000   0.832
   11        0.405   0.428   0.000   0.834
   12        0.404   0.430   0.000   0.834
   13        0.405   0.427   0.000   0.832
   14        0.405   0.429   0.000   0.834
   15        0.404   0.430   0.000   0.834
   16        0.405   0.427   0.000   0.832
   17        0.405   0.427   0.000   0.832
   18        0.404   0.429   0.000   0.833
   19        0.405   0.427   0.000   0.833
   20        0.405   0.426   0.000   0.832
   21        0.404   0.429   0.000   0.833
   22        0.405   0.427   0.000   0.833
   23        0.405   0.426   0.000   0.832
   24        0.404   0.429   0.000   0.833
   25        0.405   0.428   0.000   0.833
   26        0.405   0.427   0.000   0.832
   27        0.404   0.429   0.000   0.833
   28        0.335   0.348   5.138   5.821
   29        0.334   0.353   5.138   5.824
   30        0.331   0.353   5.136   5.820
   31        0.334   0.352   5.127   5.813
   32        0.333   0.358   5.098   5.788
   33        0.333   0.351   5.132   5.816
   34        0.334   0.352   5.135   5.820
   35        0.333   0.358   5.099   5.789
   36        0.333   0.350   5.138   5.821
   37        0.334   0.353   5.130   5.816
   38        0.334   0.354   5.156   5.844
   39        0.333   0.350   5.133   5.816
   40        0.334   0.350   5.131   5.816
   41        0.332   0.352   5.141   5.825
   42        0.333   0.351   5.133   5.818
   43        0.334   0.351   5.135   5.820
   44        0.332   0.352   5.135   5.819
   45        0.334   0.352   5.137   5.822
   46        0.334   0.352   5.143   5.829
   47        0.334   0.354   5.155   5.842
   48        0.333   0.350   5.147   5.829
   49        0.335   0.351   5.138   5.823
   50        0.332   0.352   5.133   5.817
   51        0.333   0.352   5.133   5.818
   52        0.334   0.350   5.139   5.824
   53        0.332   0.352   5.141   5.825
   54        0.333   0.351   5.139   5.823
--------------------------------------------------
tot         19.932  21.056 138.639 179.627
 


 magnetization (x)
 
# of ion       s       p       d       tot
------------------------------------------
    1        0.000  -0.001   0.000  -0.001
    2       -0.004  -0.010   0.000  -0.014
    3        0.017   0.030   0.000   0.047
    4        0.000  -0.002   0.000  -0.002
    5       -0.004  -0.009   0.000  -0.014
    6        0.017   0.030   0.000   0.047
    7        0.000   0.000   0.000   0.000
    8       -0.001  -0.003   0.000  -0.004
    9        0.021   0.036   0.000   0.057
   10        0.000  -0.002   0.000  -0.002
   11       -0.004  -0.010   0.000  -0.014
   12        0.017   0.030   0.000   0.047
   13       -0.000  -0.001   0.000  -0.001
   14       -0.004  -0.009   0.000  -0.013
   15        0.017   0.029   0.000   0.046
   16       -0.000   0.000   0.000   0.000
   17       -0.001  -0.003   0.000  -0.004
   18        0.021   0.036   0.000   0.057
   19        0.000   0.000   0.000   0.000
   20       -0.001  -0.002   0.000  -0.003
   21        0.022   0.037   0.000   0.059
   22       -0.000   0.001   0.000   0.001
   23       -0.001  -0.002   0.000  -0.003
   24        0.022   0.037   0.000   0.058
   25        0.000  -0.002   0.000  -0.002
   26        0.000  -0.001   0.000  -0.001
   27        0.023   0.039   0.000   0.061
   28        0.020   0.014   2.387   2.421
   29        0.030   0.024   2.272   2.326
   30       -0.012  -0.022  -2.199  -2.233
   31        0.014   0.019   2.284   2.317
   32       -0.024  -0.027  -2.409  -2.461
   33       -0.020  -0.018  -2.388  -2.425
   34        0.013   0.019   2.270   2.303
   35       -0.024  -0.027  -2.411  -2.462
   36       -0.019  -0.018  -2.377  -2.414
   37        0.014   0.020   2.288   2.322
   38       -0.025  -0.027  -2.383  -2.435
   39       -0.019  -0.017  -2.393  -2.429
   40        0.016   0.016   2.303   2.335
   41       -0.014  -0.015  -2.352  -2.381
   42       -0.017  -0.022  -2.377  -2.416
   43        0.016   0.016   2.294   2.326
   44       -0.014  -0.015  -2.351  -2.380
   45       -0.017  -0.021  -2.371  -2.409
   46        0.014   0.020   2.270   2.304
   47       -0.025  -0.026  -2.385  -2.436
   48       -0.019  -0.018  -2.375  -2.412
   49        0.016   0.016   2.294   2.326
   50       -0.014  -0.015  -2.352  -2.381
   51       -0.017  -0.021  -2.374  -2.412
   52        0.016   0.016   2.293   2.325
   53       -0.014  -0.015  -2.352  -2.381
   54       -0.017  -0.021  -2.368  -2.406
--------------------------------------------------
tot          0.016   0.082 -17.264 -17.165
 

 total amount of memory used by VASP MPI-rank0   566378. kBytes
=======================================================================

   base      :      30000. kBytes
   nonl-proj :      19946. kBytes
   fftplans  :      31580. kBytes
   grid      :      21385. kBytes
   one-center:        435. kBytes
   wavefun   :     463032. kBytes
 
  
  
 General timing and accounting informations for this job:
 ========================================================
  
                  Total CPU time used (sec):     1177.092
                            User time (sec):     1157.333
                          System time (sec):       19.759
                         Elapsed time (sec):     1205.068
  
                   Maximum memory used (kb):      716024.
                   Average memory used (kb):           0.
  
                          Minor page faults:       617524
                          Major page faults:           18
                 Voluntary context switches:         2578
