 vasp.5.4.4.18Apr17-6-g9f103f2a35 (build Dec 20 2018 12:05:58) complex          
  
 executed on             LinuxIFC date 2019.06.21  00:00:14
 running on   32 total cores
 distrk:  each k-point on    8 cores,    4 groups
 distr:  one band on NCORES_PER_BAND=   4 cores,    2 groups


--------------------------------------------------------------------------------------------------------


 INCAR:
 POTCAR:    PAW_PBE Al 04Jan2001                  
 POTCAR:    PAW_PBE Mn 06Sep2000                  

 ----------------------------------------------------------------------------- 
|                                                                             |
|           W    W    AA    RRRRR   N    N  II  N    N   GGGG   !!!           |
|           W    W   A  A   R    R  NN   N  II  NN   N  G    G  !!!           |
|           W    W  A    A  R    R  N N  N  II  N N  N  G       !!!           |
|           W WW W  AAAAAA  RRRRR   N  N N  II  N  N N  G  GGG   !            |
|           WW  WW  A    A  R   R   N   NN  II  N   NN  G    G                |
|           W    W  A    A  R    R  N    N  II  N    N   GGGG   !!!           |
|                                                                             |
|      You have enabled k-point parallelism (KPAR>1).                         |
|      This developmental code was originally  written by Paul Kent at ORNL,  |
|      and carefully double checked in Vienna.                                |
|      GW as well as linear response parallelism added by Martijn Marsman     |
|      and Georg Kresse.                                                      |
|      Carefully verify results versus KPAR=1.                                |
|      Report problems to Paul Kent and Vienna.                               |
|                                                                             |
 ----------------------------------------------------------------------------- 

 POTCAR:    PAW_PBE Al 04Jan2001                  
   VRHFIN =Al: s2p1                                                             
   LEXCH  = PE                                                                  
   EATOM  =    53.5387 eV,    3.9350 Ry                                         
                                                                                
   TITEL  = PAW_PBE Al 04Jan2001                                                
   LULTRA =        F    use ultrasoft PP ?                                      
   IUNSCR =        1    unscreen: 0-lin 1-nonlin 2-no                           
   RPACOR =    1.500    partial core radius                                     
   POMASS =   26.981; ZVAL   =    3.000    mass and valenz                      
   RCORE  =    1.900    outmost cutoff radius                                   
   RWIGS  =    2.650; RWIGS  =    1.402    wigner-seitz radius (au A)           
   ENMAX  =  240.300; ENMIN  =  180.225 eV                                      
   ICORE  =        2    local potential                                         
   LCOR   =        T    correct aug charges                                     
   LPAW   =        T    paw PP                                                  
   EAUG   =  291.052                                                            
   DEXC   =    0.000                                                            
   RMAX   =    1.939    core radius for proj-oper                               
   RAUG   =    1.300    factor for augmentation sphere                          
   RDEP   =    1.966    radius for radial grids                                 
   RDEPT  =    1.856    core radius for aug-charge                              
                                                                                
   Atomic configuration                                                         
    6 entries                                                                   
     n  l   j            E        occ.                                          
     1  0  0.50     -1511.1048   2.0000                                         
     2  0  0.50      -108.1629   2.0000                                         
     2  1  1.50       -69.6402   6.0000                                         
     3  0  0.50        -7.7528   2.0000                                         
     3  1  1.50        -2.7121   1.0000                                         
     3  2  2.50        -2.7212   0.0000                                         
   Description                                                                  
     l       E           TYP  RCUT    TYP  RCUT                                 
     0     -7.7528455     23  1.900                                             
     0     -3.3096929     23  1.900                                             
     1     -2.7120682     23  1.900                                             
     1     13.6058260     23  1.900                                             
     2     -2.7211652      7  1.900                                             
  local pseudopotential read in
  partial core-charges read in
  partial kinetic energy density read in
  atomic valenz-charges read in
  non local Contribution for L=           0  read in
    real space projection operators read in
  non local Contribution for L=           0  read in
    real space projection operators read in
  non local Contribution for L=           1  read in
    real space projection operators read in
  non local Contribution for L=           1  read in
    real space projection operators read in
    PAW grid and wavefunctions read in
 
   number of l-projection  operators is LMAX  =           4
   number of lm-projection operators is LMMAX =           8
 
 POTCAR:    PAW_PBE Mn 06Sep2000                  
   VRHFIN =Mn: d6 s1                                                            
   LEXCH  = PE                                                                  
   EATOM  =   416.7541 eV,   30.6306 Ry                                         
                                                                                
   TITEL  = PAW_PBE Mn 06Sep2000                                                
   LULTRA =        F    use ultrasoft PP ?                                      
   IUNSCR =        1    unscreen: 0-lin 1-nonlin 2-no                           
   RPACOR =    2.000    partial core radius                                     
   POMASS =   54.938; ZVAL   =    7.000    mass and valenz                      
   RCORE  =    2.300    outmost cutoff radius                                   
   RWIGS  =    2.500; RWIGS  =    1.323    wigner-seitz radius (au A)           
   ENMAX  =  269.864; ENMIN  =  202.398 eV                                      
   RCLOC  =    1.725    cutoff for local pot                                    
   LCOR   =        T    correct aug charges                                     
   LPAW   =        T    paw PP                                                  
   EAUG   =  500.711                                                            
   DEXC   =    0.000                                                            
   RMAX   =    2.343    core radius for proj-oper                               
   RAUG   =    1.300    factor for augmentation sphere                          
   RDEP   =    2.338    radius for radial grids                                 
   RDEPT  =    1.911    core radius for aug-charge                              
                                                                                
   Atomic configuration                                                         
    9 entries                                                                   
     n  l   j            E        occ.                                          
     1  0  0.50     -6424.8288   2.0000                                         
     2  0  0.50      -739.1154   2.0000                                         
     2  1  1.50      -625.3949   6.0000                                         
     3  0  0.50       -81.6100   2.0000                                         
     3  1  1.50       -50.4667   6.0000                                         
     3  2  2.50        -3.3745   6.0000                                         
     4  0  0.50        -4.1331   1.0000                                         
     4  1  0.50        -4.0817   0.0000                                         
     4  3  2.50        -1.3606   0.0000                                         
   Description                                                                  
     l       E           TYP  RCUT    TYP  RCUT                                 
     2     -3.3744664     23  2.300                                             
     2     -4.7350490     23  2.300                                             
     0     -4.1331408     23  2.300                                             
     0      7.6656614     23  2.300                                             
     1     -2.7211652     23  2.300                                             
     1     20.4087390     23  2.300                                             
  local pseudopotential read in
  partial core-charges read in
  partial kinetic energy density read in
  atomic valenz-charges read in
  non local Contribution for L=           2  read in
    real space projection operators read in
  non local Contribution for L=           2  read in
    real space projection operators read in
  non local Contribution for L=           0  read in
    real space projection operators read in
  non local Contribution for L=           0  read in
    real space projection operators read in
  non local Contribution for L=           1  read in
    real space projection operators read in
  non local Contribution for L=           1  read in
    real space projection operators read in
    PAW grid and wavefunctions read in
 
   number of l-projection  operators is LMAX  =           6
   number of lm-projection operators is LMMAX =          18
 

 ----------------------------------------------------------------------------- 
|                                                                             |
|  ADVICE TO THIS USER RUNNING 'VASP/VAMP'   (HEAR YOUR MASTER'S VOICE ...):  |
|                                                                             |
|      You have a (more or less) 'large supercell' and for larger cells       |
|      it might be more efficient to use real space projection opertators     |
|      So try LREAL= Auto  in the INCAR   file.                               |
|      Mind:          For very  accurate calculation you might also keep the  |
|      reciprocal projection scheme          (i.e. LREAL=.FALSE.)             |
|                                                                             |
 ----------------------------------------------------------------------------- 

  PAW_PBE Al 04Jan2001                  :
 energy of atom  1       EATOM=  -53.5387
 kinetic energy error for atom=    0.0005 (will be added to EATOM!!)
  PAW_PBE Mn 06Sep2000                  :
 energy of atom  2       EATOM= -416.7541
 kinetic energy error for atom=    0.0080 (will be added to EATOM!!)
 
 
 POSCAR: NewRef: 27, @ ['Mn', array([1.37502469, 
  positions in cartesian coordinates
  velocities in cartesian coordinates
  No initial velocities read in
 exchange correlation table for  LEXCH =        8
   RHO(1)=    0.500       N(1)  =     2000
   RHO(2)=  100.500       N(2)  =     4000
 


--------------------------------------------------------------------------------------------------------


 ion  position               nearest neighbor table
   1  0.000  0.000  0.000-  28 2.61  30 2.61  34 2.61  36 2.61  46 2.61  48 2.61  52 2.61  54 2.61
                             4 2.75  10 2.75   7 2.75  19 2.75
   2  0.000  0.000  0.333-  28 2.61  34 2.61  46 2.61  52 2.61  29 2.61  47 2.61  35 2.61  53 2.61
                             5 2.75  11 2.75   8 2.75  20 2.75
   3  0.000  0.000  0.667-  29 2.61  35 2.61  47 2.61  53 2.61  30 2.61  48 2.61  36 2.61  54 2.61
                             6 2.75  12 2.75   9 2.75  21 2.75
   4  0.000  0.333  0.000-  28 2.61  30 2.61  46 2.61  48 2.61  31 2.61  33 2.61  49 2.61  51 2.61
                            13 2.75   1 2.75   7 2.75  22 2.75
   5  0.000  0.333  0.333-  28 2.61  46 2.61  31 2.61  49 2.61  47 2.61  29 2.61  32 2.61  50 2.61
                            14 2.75   2 2.75   8 2.75  23 2.75
   6  0.000  0.333  0.667-  29 2.61  47 2.61  32 2.61  50 2.61  48 2.61  30 2.61  33 2.61  51 2.61
                            15 2.75   3 2.75   9 2.75  24 2.75
   7  0.000  0.667  0.000-  31 2.61  33 2.61  49 2.61  51 2.61  34 2.61  36 2.61  52 2.61  54 2.61
                             4 2.75  16 2.75   1 2.75  25 2.75
   8  0.000  0.667  0.333-  31 2.61  49 2.61  34 2.61  52 2.61  50 2.61  32 2.61  35 2.61  53 2.61
                             5 2.75  17 2.75   2 2.75  26 2.75
   9  0.000  0.667  0.667-  32 2.61  50 2.61  35 2.61  53 2.61  51 2.61  33 2.61  36 2.61  54 2.61
                             6 2.75  18 2.75   3 2.75  27 2.75
  10  0.333  0.000  0.000-  28 2.61  30 2.61  34 2.61  36 2.61  37 2.61  39 2.61  43 2.61  45 2.61
                            19 2.75   1 2.75  13 2.75  16 2.75
  11  0.333  0.000  0.333-  28 2.61  34 2.61  37 2.61  43 2.61  29 2.61  35 2.61  38 2.61  44 2.61
                            20 2.75   2 2.75  14 2.75  17 2.75
  12  0.333  0.000  0.667-  29 2.61  35 2.61  38 2.61  44 2.61  30 2.61  36 2.61  39 2.61  45 2.61
                            21 2.75   3 2.75  15 2.75  18 2.75
  13  0.333  0.333  0.000-  28 2.61  30 2.61  31 2.61  33 2.61  37 2.61  39 2.61  40 2.61  42 2.61
                             4 2.75  10 2.75  16 2.75  22 2.75
  14  0.333  0.333  0.333-  28 2.61  31 2.61  37 2.61  29 2.61  40 2.61  38 2.61  32 2.61  41 2.61
                             5 2.75  11 2.75  17 2.75  23 2.75
  15  0.333  0.333  0.667-  29 2.61  32 2.61  38 2.61  30 2.61  41 2.61  39 2.61  33 2.61  42 2.61
                             6 2.75  12 2.75  18 2.75  24 2.75
  16  0.333  0.667  0.000-  31 2.61  33 2.61  34 2.61  36 2.61  40 2.61  42 2.61  43 2.61  45 2.61
                            25 2.75   7 2.75  13 2.75  10 2.75
  17  0.333  0.667  0.333-  31 2.61  34 2.61  40 2.61  32 2.61  43 2.61  41 2.61  35 2.61  44 2.61
                            26 2.75   8 2.75  14 2.75  11 2.75
  18  0.333  0.667  0.667-  32 2.61  35 2.61  41 2.61  33 2.61  44 2.61  42 2.61  36 2.61  45 2.61
                            27 2.75   9 2.75  15 2.75  12 2.75
  19  0.667  0.000  0.000-  37 2.61  39 2.61  43 2.61  45 2.61  46 2.61  48 2.61  52 2.61  54 2.61
                            10 2.75  22 2.75   1 2.75  25 2.75
  20  0.667  0.000  0.333-  37 2.61  43 2.61  46 2.61  52 2.61  38 2.61  44 2.61  47 2.61  53 2.61
                            11 2.75  23 2.75   2 2.75  26 2.75
  21  0.667  0.000  0.667-  38 2.61  44 2.61  47 2.61  53 2.61  39 2.61  45 2.61  48 2.61  54 2.61
                            12 2.75  24 2.75   3 2.75  27 2.75
  22  0.667  0.333  0.000-  37 2.61  39 2.61  40 2.61  42 2.61  46 2.61  48 2.61  49 2.61  51 2.61
                            25 2.75  13 2.75  19 2.75   4 2.75
  23  0.667  0.333  0.333-  37 2.61  40 2.61  46 2.61  38 2.61  49 2.61  47 2.61  41 2.61  50 2.61
                            26 2.75  14 2.75  20 2.75   5 2.75
  24  0.667  0.333  0.667-  38 2.61  41 2.61  47 2.61  39 2.61  50 2.61  48 2.61  42 2.61  51 2.61
                            27 2.75  15 2.75  21 2.75   6 2.75
  25  0.667  0.667  0.000-  40 2.61  42 2.61  43 2.61  45 2.61  49 2.61  51 2.61  52 2.61  54 2.61
                            16 2.75  22 2.75  19 2.75   7 2.75
  26  0.667  0.667  0.333-  40 2.61  43 2.61  49 2.61  41 2.61  52 2.61  50 2.61  44 2.61  53 2.61
                            17 2.75  23 2.75  20 2.75   8 2.75
  27  0.667  0.667  0.667-  41 2.61  44 2.61  50 2.61  42 2.61  53 2.61  51 2.61  45 2.61  54 2.61
                            18 2.75  24 2.75  21 2.75   9 2.75
  28  0.167  0.167  0.167-  14 2.61  11 2.61   5 2.61  13 2.61   2 2.61  10 2.61   4 2.61   1 2.61
                            31 2.75  37 2.75  34 2.75  46 2.75
  29  0.167  0.167  0.500-  15 2.61  12 2.61   6 2.61  14 2.61   3 2.61  11 2.61   5 2.61   2 2.61
                            32 2.75  38 2.75  35 2.75  47 2.75
  30  0.167  0.167  0.833-  13 2.61  15 2.61  10 2.61  12 2.61   4 2.61   6 2.61   1 2.61   3 2.61
                            33 2.75  39 2.75  36 2.75  48 2.75
  31  0.167  0.500  0.167-  17 2.61  14 2.61   8 2.61  16 2.61   5 2.61  13 2.61   7 2.61   4 2.61
                            28 2.75  34 2.75  40 2.75  49 2.75
  32  0.167  0.500  0.500-  18 2.61  15 2.61   9 2.61  17 2.61   6 2.61  14 2.61   8 2.61   5 2.61
                            29 2.75  35 2.75  41 2.75  50 2.75
  33  0.167  0.500  0.833-  16 2.61  18 2.61  13 2.61  15 2.61   7 2.61   9 2.61   4 2.61   6 2.61
                            30 2.75  36 2.75  42 2.75  51 2.75
  34  0.167  0.833  0.167-  11 2.61  17 2.61   2 2.61   8 2.61  16 2.61  10 2.61   7 2.61   1 2.61
                            31 2.75  43 2.75  28 2.75  52 2.75
  35  0.167  0.833  0.500-  12 2.61  18 2.61   3 2.61   9 2.61  17 2.61  11 2.61   8 2.61   2 2.61
                            32 2.75  44 2.75  29 2.75  53 2.75
  36  0.167  0.833  0.833-  10 2.61  12 2.61  16 2.61  18 2.61   1 2.61   3 2.61   7 2.61   9 2.61
                            33 2.75  45 2.75  30 2.75  54 2.75
  37  0.500  0.167  0.167-  23 2.61  20 2.61  14 2.61  22 2.61  11 2.61  19 2.61  13 2.61  10 2.61
                            28 2.75  40 2.75  46 2.75  43 2.75
  38  0.500  0.167  0.500-  24 2.61  21 2.61  15 2.61  23 2.61  12 2.61  20 2.61  14 2.61  11 2.61
                            29 2.75  41 2.75  47 2.75  44 2.75
  39  0.500  0.167  0.833-  22 2.61  24 2.61  19 2.61  21 2.61  13 2.61  15 2.61  10 2.61  12 2.61
                            30 2.75  42 2.75  48 2.75  45 2.75
  40  0.500  0.500  0.167-  26 2.61  23 2.61  17 2.61  25 2.61  14 2.61  22 2.61  16 2.61  13 2.61
                            31 2.75  37 2.75  43 2.75  49 2.75
  41  0.500  0.500  0.500-  27 2.61  24 2.61  18 2.61  26 2.61  15 2.61  23 2.61  17 2.61  14 2.61
                            32 2.75  38 2.75  44 2.75  50 2.75
  42  0.500  0.500  0.833-  25 2.61  27 2.61  22 2.61  24 2.61  16 2.61  18 2.61  13 2.61  15 2.61
                            33 2.75  39 2.75  45 2.75  51 2.75
  43  0.500  0.833  0.167-  20 2.61  26 2.61  11 2.61  17 2.61  25 2.61  19 2.61  16 2.61  10 2.61
                            34 2.75  40 2.75  52 2.75  37 2.75
  44  0.500  0.833  0.500-  21 2.61  27 2.61  12 2.61  18 2.61  26 2.61  20 2.61  17 2.61  11 2.61
                            35 2.75  41 2.75  53 2.75  38 2.75
  45  0.500  0.833  0.833-  19 2.61  21 2.61  25 2.61  27 2.61  10 2.61  12 2.61  16 2.61  18 2.61
                            36 2.75  42 2.75  54 2.75  39 2.75
  46  0.833  0.167  0.167-   5 2.61  23 2.61  20 2.61   2 2.61  22 2.61   4 2.61  19 2.61   1 2.61
                            37 2.75  49 2.75  28 2.75  52 2.75
  47  0.833  0.167  0.500-   6 2.61  24 2.61  21 2.61   3 2.61  23 2.61   5 2.61  20 2.61   2 2.61
                            38 2.75  50 2.75  29 2.75  53 2.75
  48  0.833  0.167  0.833-   4 2.61   6 2.61  22 2.61  24 2.61  19 2.61  21 2.61   1 2.61   3 2.61
                            39 2.75  51 2.75  30 2.75  54 2.75
  49  0.833  0.500  0.167-   8 2.61  26 2.61  23 2.61   5 2.61  25 2.61   7 2.61  22 2.61   4 2.61
                            40 2.75  46 2.75  52 2.75  31 2.75
  50  0.833  0.500  0.500-   9 2.61  27 2.61  24 2.61   6 2.61  26 2.61   8 2.61  23 2.61   5 2.61
                            41 2.75  47 2.75  53 2.75  32 2.75
  51  0.833  0.500  0.833-   7 2.61   9 2.61  25 2.61  27 2.61  22 2.61  24 2.61   4 2.61   6 2.61
                            42 2.75  48 2.75  54 2.75  33 2.75
  52  0.833  0.833  0.167-   2 2.61   8 2.61  20 2.61  26 2.61  19 2.61   7 2.61  25 2.61   1 2.61
                            43 2.75  49 2.75  46 2.75  34 2.75
  53  0.833  0.833  0.500-   3 2.61   9 2.61  21 2.61  27 2.61  20 2.61   8 2.61  26 2.61   2 2.61
                            44 2.75  50 2.75  47 2.75  35 2.75
  54  0.833  0.833  0.833-   1 2.61   3 2.61   7 2.61   9 2.61  19 2.61  21 2.61  25 2.61  27 2.61
                            45 2.75  51 2.75  48 2.75  36 2.75
 
  LATTYP: Found a simple tetragonal cell.
 ALAT       =     8.2501481662
 C/A-ratio  =     1.2642089792
  
  Lattice vectors:
  
 A1 = (   8.2501481662,   0.0000000000,   0.0000000000)
 A2 = (   0.0000000000,   8.2501481662,   0.0000000000)
 A3 = (   0.0000000000,   0.0000000000,  10.4299113916)


Analysis of symmetry for initial positions (statically):
=====================================================================
 Subroutine PRICEL returns following result:
 
  LATTYP: Found a simple tetragonal cell.
 ALAT       =     2.7500493888
 C/A-ratio  =     1.2642089792
  
  Lattice vectors:
  
 A1 = (   2.7500493888,   0.0000000000,   0.0000000000)
 A2 = (   0.0000000000,   2.7500493888,   0.0000000000)
 A3 = (   0.0000000000,   0.0000000000,   3.4766371306)
 
  27 primitive cells build up your supercell.
 

 Routine SETGRP: Setting up the symmetry group for a 
 simple tetragonal supercell.


 Subroutine GETGRP returns: Found 16 space group operations
 (whereof 16 operations were pure point group operations)
 out of a pool of 16 trial point group operations.


The static configuration has the point symmetry D_4h.


Analysis of symmetry for dynamics (positions and initial velocities):
=====================================================================
 Subroutine PRICEL returns following result:
 
  LATTYP: Found a simple tetragonal cell.
 ALAT       =     2.7500493888
 C/A-ratio  =     1.2642089792
  
  Lattice vectors:
  
 A1 = (   2.7500493888,   0.0000000000,   0.0000000000)
 A2 = (   0.0000000000,   2.7500493888,   0.0000000000)
 A3 = (   0.0000000000,   0.0000000000,   3.4766371306)
 
  27 primitive cells build up your supercell.
 

 Routine SETGRP: Setting up the symmetry group for a 
 simple tetragonal supercell.


 Subroutine GETGRP returns: Found 16 space group operations
 (whereof 16 operations were pure point group operations)
 out of a pool of 16 trial point group operations.


The dynamic configuration has the point symmetry D_4h.


Analysis of structural, dynamic, and magnetic symmetry:
=====================================================================
 Subroutine PRICEL returns:
 Original cell was already a primitive cell.
 

 Routine SETGRP: Setting up the symmetry group for a 
 simple tetragonal supercell.


 Subroutine GETGRP returns: Found  4 space group operations
 (whereof  1 operations were pure point group operations)
 out of a pool of 16 trial point group operations.


The magnetic configuration has the point symmetry C_1 .
 The point group associated with its full space group is C_2v.


 Subroutine INISYM returns: Found  4 space group operations
 (whereof  1 operations are pure point group operations),
 and found     1 'primitive' translations

 
 
 KPOINTS: automatic KPOINTS                       

Automatic generation of k-mesh.
 generate k-points for:    5    5    4
Space group operators:
 irot       det(A)        alpha          n_x          n_y          n_z        tau_x        tau_y        tau_z
    1     1.000000     0.000001     1.000000     0.000000     0.000000     0.000000     0.000000     0.000000
    2     1.000000   180.000000     0.000000     0.000000     1.000000     0.333333     0.333333     0.000000
    3    -1.000000   180.000000     0.000000     1.000000     0.000000     0.000000     0.333333     0.000000
    4    -1.000000   180.000000     1.000000     0.000000     0.000000     0.333333     0.000000     0.000000
 
 Subroutine IBZKPT returns following result:
 ===========================================
 
 Found     27 irreducible k-points:
 
 Following reciprocal coordinates:
            Coordinates               Weight
  0.000000  0.000000  0.000000      1.000000
  0.200000  0.000000  0.000000      2.000000
  0.400000  0.000000  0.000000      2.000000
  0.000000  0.200000  0.000000      2.000000
  0.200000  0.200000  0.000000      4.000000
  0.400000  0.200000  0.000000      4.000000
  0.000000  0.400000  0.000000      2.000000
  0.200000  0.400000  0.000000      4.000000
  0.400000  0.400000  0.000000      4.000000
  0.000000  0.000000  0.250000      2.000000
  0.200000  0.000000  0.250000      4.000000
  0.400000  0.000000  0.250000      4.000000
  0.000000  0.200000  0.250000      4.000000
  0.200000  0.200000  0.250000      8.000000
  0.400000  0.200000  0.250000      8.000000
  0.000000  0.400000  0.250000      4.000000
  0.200000  0.400000  0.250000      8.000000
  0.400000  0.400000  0.250000      8.000000
  0.000000  0.000000  0.500000      1.000000
  0.200000  0.000000  0.500000      2.000000
  0.400000  0.000000  0.500000      2.000000
  0.000000  0.200000  0.500000      2.000000
  0.200000  0.200000  0.500000      4.000000
  0.400000  0.200000  0.500000      4.000000
  0.000000  0.400000  0.500000      2.000000
  0.200000  0.400000  0.500000      4.000000
  0.400000  0.400000  0.500000      4.000000
 
 Following cartesian coordinates:
            Coordinates               Weight
  0.000000  0.000000  0.000000      1.000000
  0.024242  0.000000  0.000000      2.000000
  0.048484  0.000000  0.000000      2.000000
  0.000000  0.024242  0.000000      2.000000
  0.024242  0.024242  0.000000      4.000000
  0.048484  0.024242  0.000000      4.000000
  0.000000  0.048484  0.000000      2.000000
  0.024242  0.048484  0.000000      4.000000
  0.048484  0.048484  0.000000      4.000000
  0.000000  0.000000  0.023970      2.000000
  0.024242  0.000000  0.023970      4.000000
  0.048484  0.000000  0.023970      4.000000
  0.000000  0.024242  0.023970      4.000000
  0.024242  0.024242  0.023970      8.000000
  0.048484  0.024242  0.023970      8.000000
  0.000000  0.048484  0.023970      4.000000
  0.024242  0.048484  0.023970      8.000000
  0.048484  0.048484  0.023970      8.000000
  0.000000  0.000000  0.047939      1.000000
  0.024242  0.000000  0.047939      2.000000
  0.048484  0.000000  0.047939      2.000000
  0.000000  0.024242  0.047939      2.000000
  0.024242  0.024242  0.047939      4.000000
  0.048484  0.024242  0.047939      4.000000
  0.000000  0.048484  0.047939      2.000000
  0.024242  0.048484  0.047939      4.000000
  0.048484  0.048484  0.047939      4.000000
 


--------------------------------------------------------------------------------------------------------




 Dimension of arrays:
   k-points           NKPTS =     27   k-points in BZ     NKDIM =     27   number of bands    NBANDS=    162
   number of dos      NEDOS =    301   number of ions     NIONS =     54
   non local maximal  LDIM  =      6   non local SUM 2l+1 LMDIM =     18
   total plane-waves  NPLWV = 204120
   max r-space proj   IRMAX =      1   max aug-charges    IRDMAX=  89713
   dimension x,y,z NGX =    54 NGY =   54 NGZ =   70
   dimension x,y,z NGXF=   108 NGYF=  108 NGZF=  140
   support grid    NGXF=   216 NGYF=  216 NGZF=  280
   ions per type =              27  27
   NGX,Y,Z   is equivalent  to a cutoff of  10.88, 10.88, 11.16 a.u.
   NGXF,Y,Z  is equivalent  to a cutoff of  21.76, 21.76, 22.32 a.u.

 SYSTEM =  AlMn_pv                                 
 POSCAR =  NewRef: 27, @ ['Mn', array([1.37502469, 

 Startparameter for this run:
   NWRITE =      2    write-flag & timer
   PREC   = accura    normal or accurate (medium, high low for compatibility)
   ISTART =      0    job   : 0-new  1-cont  2-samecut
   ICHARG =      2    charge: 1-file 2-atom 10-const
   ISPIN  =      2    spin polarized calculation?
   LNONCOLLINEAR =      F non collinear calculations
   LSORBIT =      F    spin-orbit coupling
   INIWAV =      1    electr: 0-lowe 1-rand  2-diag
   LASPH  =      F    aspherical Exc in radial PAW
   METAGGA=      F    non-selfconsistent MetaGGA calc.

 Electronic Relaxation 1
   ENCUT  =  404.8 eV  29.75 Ry    5.45 a.u.  13.53 13.53 17.11*2*pi/ulx,y,z
   ENINI  =  404.8     initial cutoff
   ENAUG  =  500.7 eV  augmentation charge cutoff
   NELM   =    100;   NELMIN=  4; NELMDL= -8     # of ELM steps 
   EDIFF  = 0.1E-06   stopping-criterion for ELM
   LREAL  =      F    real-space projection
   NLSPLINE    = F    spline interpolate recip. space projectors
   LCOMPAT=      F    compatible to vasp.4.4
   GGA_COMPAT  = T    GGA compatible to vasp.4.4-vasp.4.6
   LMAXPAW     = -100 max onsite density
   LMAXMIX     =    2 max onsite mixed and CHGCAR
   VOSKOWN=      0    Vosko Wilk Nusair interpolation
   ROPT   =    0.00000   0.00000
 Ionic relaxation
   EDIFFG = 0.1E-05   stopping-criterion for IOM
   NSW    =      0    number of steps for IOM
   NBLOCK =      1;   KBLOCK =      1    inner block; outer block 
   IBRION =     -1    ionic relax: 0-MD 1-quasi-New 2-CG
   NFREE  =      0    steps in history (QN), initial steepest desc. (CG)
   ISIF   =      2    stress and relaxation
   IWAVPR =     10    prediction:  0-non 1-charg 2-wave 3-comb
   ISYM   =      2    0-nonsym 1-usesym 2-fastsym
   LCORR  =      T    Harris-Foulkes like correction to forces

   POTIM  = 0.2000    time-step for ionic-motion
   TEIN   =    0.0    initial temperature
   TEBEG  =    0.0;   TEEND  =   0.0 temperature during run
   SMASS  =  -3.00    Nose mass-parameter (am)
   estimated Nose-frequenzy (Omega)   =  0.10E-29 period in steps =****** mass=  -0.156E-26a.u.
   SCALEE = 1.0000    scale energy and forces
   NPACO  =    256;   APACO  = 16.0  distance and # of slots for P.C.
   PSTRESS=    0.0 pullay stress

  Mass of Ions in am
   POMASS =  26.98 54.94
  Ionic Valenz
   ZVAL   =   3.00  7.00
  Atomic Wigner-Seitz radii
   RWIGS  =  -1.00 -1.00
  virtual crystal weights 
   VCA    =   1.00  1.00
   NELECT =     270.0000    total number of electrons
   NUPDOWN=      -1.0000    fix difference up-down

 DOS related values:
   EMIN   =  10.00;   EMAX   =-10.00  energy-range for DOS
   EFERMI =   0.00
   ISMEAR =     1;   SIGMA  =   0.20  broadening in eV -4-tet -1-fermi 0-gaus

 Electronic relaxation 2 (details)
   IALGO  =     58    algorithm
   LDIAG  =      T    sub-space diagonalisation (order eigenvalues)
   LSUBROT=      F    optimize rotation matrix (better conditioning)
   TURBO    =      0    0=normal 1=particle mesh
   IRESTART =      0    0=no restart 2=restart with 2 vectors
   NREBOOT  =      0    no. of reboots
   NMIN     =      0    reboot dimension
   EREF     =   0.00    reference energy to select bands
   IMIX   =      4    mixing-type and parameters
     AMIX     =   0.40;   BMIX     =  1.00
     AMIX_MAG =   1.60;   BMIX_MAG =  1.00
     AMIN     =   0.10
     WC   =   100.;   INIMIX=   1;  MIXPRE=   1;  MAXMIX= -45

 Intra band minimization:
   WEIMIN = 0.0000     energy-eigenvalue tresh-hold
   EBREAK =  0.15E-09  absolut break condition
   DEPER  =   0.30     relativ break condition  

   TIME   =   0.40     timestep for ELM

  volume/ion in A,a.u.               =      13.15        88.72
  Fermi-wavevector in a.u.,A,eV,Ry     =   1.186118  2.241439 19.141722  1.406877
  Thomas-Fermi vector in A             =   2.322298
 
 Write flags
   LWAVE        =      F    write WAVECAR
   LDOWNSAMPLE  =      F    k-point downsampling of WAVECAR
   LCHARG       =      F    write CHGCAR
   LVTOT        =      F    write LOCPOT, total local potential
   LVHAR        =      F    write LOCPOT, Hartree potential only
   LELF         =      F    write electronic localiz. function (ELF)
   LORBIT       =     10    0 simple, 1 ext, 2 COOP (PROOUT), +10 PAW based schemes


 Dipole corrections
   LMONO  =      F    monopole corrections only (constant potential shift)
   LDIPOL =      F    correct potential (dipole corrections)
   IDIPOL =      0    1-x, 2-y, 3-z, 4-all directions 
   EPSILON=  1.0000000 bulk dielectric constant

 Exchange correlation treatment:
   GGA     =    --    GGA type
   LEXCH   =     8    internal setting for exchange type
   VOSKOWN=      0    Vosko Wilk Nusair interpolation
   LHFCALC =     F    Hartree Fock is set to
   LHFONE  =     F    Hartree Fock one center treatment
   AEXX    =    0.0000 exact exchange contribution

 Linear response parameters
   LEPSILON=     F    determine dielectric tensor
   LRPA    =     F    only Hartree local field effects (RPA)
   LNABLA  =     F    use nabla operator in PAW spheres
   LVEL    =     F    velocity operator in full k-point grid
   LINTERFAST=   F  fast interpolation
   KINTER  =     0    interpolate to denser k-point grid
   CSHIFT  =0.1000    complex shift for real part using Kramers Kronig
   OMEGAMAX=  -1.0    maximum frequency
   DEG_THRESHOLD= 0.2000000E-02 threshold for treating states as degnerate
   RTIME   =   -0.100 relaxation time in fs
  (WPLASMAI=    0.000 imaginary part of plasma frequency in eV, 0.658/RTIME)
   DFIELD  = 0.0000000 0.0000000 0.0000000 field for delta impulse in time
 
 Orbital magnetization related:
   ORBITALMAG=     F  switch on orbital magnetization
   LCHIMAG   =     F  perturbation theory with respect to B field
   DQ        =  0.001000  dq finite difference perturbation B field
   LLRAUG    =     F  two centre corrections for induced B field



--------------------------------------------------------------------------------------------------------


 Static calculation
 charge density and potential will be updated during run
 spin polarized calculation
 Conjugate gradient for all bands (Freysoldt, et al. PRB 79, 241103 (2009))
 preconditioned conjugated gradient                                        
 perform sub-space diagonalisation
    before iterative eigenvector-optimisation
 modified Broyden-mixing scheme, WC =      100.0
 initial mixing is a Kerker type mixing with AMIX =  0.4000 and BMIX =      1.0000
 Hartree-type preconditioning will be used
 using additional bands           27
 reciprocal scheme for non local part
 use partial core corrections
 no Harris-corrections to forces 
 use gradient corrections 
 use of overlap-Matrix (Vanderbilt PP)
 Methfessel and Paxton  Order N= 1 SIGMA  =   0.20


--------------------------------------------------------------------------------------------------------


  energy-cutoff  :      404.80
  volume of cell :      709.91
      direct lattice vectors                 reciprocal lattice vectors
     8.250148166  0.000000000  0.000000000     0.121209944  0.000000000  0.000000000
     0.000000000  8.250148166  0.000000000     0.000000000  0.121209944  0.000000000
     0.000000000  0.000000000 10.429911392     0.000000000  0.000000000  0.095878092

  length of vectors
     8.250148166  8.250148166 10.429911392     0.121209944  0.121209944  0.095878092


 
 k-points in units of 2pi/SCALE and weight: automatic KPOINTS                       
   0.00000000  0.00000000  0.00000000       0.010
   0.02424199  0.00000000  0.00000000       0.020
   0.04848398  0.00000000  0.00000000       0.020
   0.00000000  0.02424199  0.00000000       0.020
   0.02424199  0.02424199  0.00000000       0.040
   0.04848398  0.02424199  0.00000000       0.040
   0.00000000  0.04848398  0.00000000       0.020
   0.02424199  0.04848398  0.00000000       0.040
   0.04848398  0.04848398  0.00000000       0.040
   0.00000000  0.00000000  0.02396952       0.020
   0.02424199  0.00000000  0.02396952       0.040
   0.04848398  0.00000000  0.02396952       0.040
   0.00000000  0.02424199  0.02396952       0.040
   0.02424199  0.02424199  0.02396952       0.080
   0.04848398  0.02424199  0.02396952       0.080
   0.00000000  0.04848398  0.02396952       0.040
   0.02424199  0.04848398  0.02396952       0.080
   0.04848398  0.04848398  0.02396952       0.080
   0.00000000  0.00000000  0.04793905       0.010
   0.02424199  0.00000000  0.04793905       0.020
   0.04848398  0.00000000  0.04793905       0.020
   0.00000000  0.02424199  0.04793905       0.020
   0.02424199  0.02424199  0.04793905       0.040
   0.04848398  0.02424199  0.04793905       0.040
   0.00000000  0.04848398  0.04793905       0.020
   0.02424199  0.04848398  0.04793905       0.040
   0.04848398  0.04848398  0.04793905       0.040
 
 k-points in reciprocal lattice and weights: automatic KPOINTS                       
   0.00000000  0.00000000  0.00000000       0.010
   0.20000000  0.00000000  0.00000000       0.020
   0.40000000  0.00000000  0.00000000       0.020
   0.00000000  0.20000000  0.00000000       0.020
   0.20000000  0.20000000  0.00000000       0.040
   0.40000000  0.20000000  0.00000000       0.040
   0.00000000  0.40000000  0.00000000       0.020
   0.20000000  0.40000000  0.00000000       0.040
   0.40000000  0.40000000  0.00000000       0.040
   0.00000000  0.00000000  0.25000000       0.020
   0.20000000  0.00000000  0.25000000       0.040
   0.40000000  0.00000000  0.25000000       0.040
   0.00000000  0.20000000  0.25000000       0.040
   0.20000000  0.20000000  0.25000000       0.080
   0.40000000  0.20000000  0.25000000       0.080
   0.00000000  0.40000000  0.25000000       0.040
   0.20000000  0.40000000  0.25000000       0.080
   0.40000000  0.40000000  0.25000000       0.080
   0.00000000  0.00000000  0.50000000       0.010
   0.20000000  0.00000000  0.50000000       0.020
   0.40000000  0.00000000  0.50000000       0.020
   0.00000000  0.20000000  0.50000000       0.020
   0.20000000  0.20000000  0.50000000       0.040
   0.40000000  0.20000000  0.50000000       0.040
   0.00000000  0.40000000  0.50000000       0.020
   0.20000000  0.40000000  0.50000000       0.040
   0.40000000  0.40000000  0.50000000       0.040
 
 position of ions in fractional coordinates (direct lattice) 
   0.00000000  0.00000000  0.00000000
   0.00000000  0.00000000  0.33333333
   0.00000000  0.00000000  0.66666667
   0.00000000  0.33333333  0.00000000
   0.00000000  0.33333333  0.33333333
   0.00000000  0.33333333  0.66666667
   0.00000000  0.66666667  0.00000000
   0.00000000  0.66666667  0.33333333
   0.00000000  0.66666667  0.66666667
   0.33333333  0.00000000  0.00000000
   0.33333333  0.00000000  0.33333333
   0.33333333  0.00000000  0.66666667
   0.33333333  0.33333333  0.00000000
   0.33333333  0.33333333  0.33333333
   0.33333333  0.33333333  0.66666667
   0.33333333  0.66666667  0.00000000
   0.33333333  0.66666667  0.33333333
   0.33333333  0.66666667  0.66666667
   0.66666667  0.00000000  0.00000000
   0.66666667  0.00000000  0.33333333
   0.66666667  0.00000000  0.66666667
   0.66666667  0.33333333  0.00000000
   0.66666667  0.33333333  0.33333333
   0.66666667  0.33333333  0.66666667
   0.66666667  0.66666667  0.00000000
   0.66666667  0.66666667  0.33333333
   0.66666667  0.66666667  0.66666667
   0.16666667  0.16666667  0.16666667
   0.16666667  0.16666667  0.50000000
   0.16666667  0.16666667  0.83333333
   0.16666667  0.50000000  0.16666667
   0.16666667  0.50000000  0.50000000
   0.16666667  0.50000000  0.83333333
   0.16666667  0.83333333  0.16666667
   0.16666667  0.83333333  0.50000000
   0.16666667  0.83333333  0.83333333
   0.50000000  0.16666667  0.16666667
   0.50000000  0.16666667  0.50000000
   0.50000000  0.16666667  0.83333333
   0.50000000  0.50000000  0.16666667
   0.50000000  0.50000000  0.50000000
   0.50000000  0.50000000  0.83333333
   0.50000000  0.83333333  0.16666667
   0.50000000  0.83333333  0.50000000
   0.50000000  0.83333333  0.83333333
   0.83333333  0.16666667  0.16666667
   0.83333333  0.16666667  0.50000000
   0.83333333  0.16666667  0.83333333
   0.83333333  0.50000000  0.16666667
   0.83333333  0.50000000  0.50000000
   0.83333333  0.50000000  0.83333333
   0.83333333  0.83333333  0.16666667
   0.83333333  0.83333333  0.50000000
   0.83333333  0.83333333  0.83333333
 
 position of ions in cartesian coordinates  (Angst):
   0.00000000  0.00000000  0.00000000
   0.00000000  0.00000000  3.47663713
   0.00000000  0.00000000  6.95327426
   0.00000000  2.75004939  0.00000000
   0.00000000  2.75004939  3.47663713
   0.00000000  2.75004939  6.95327426
   0.00000000  5.50009878  0.00000000
   0.00000000  5.50009878  3.47663713
   0.00000000  5.50009878  6.95327426
   2.75004939  0.00000000  0.00000000
   2.75004939  0.00000000  3.47663713
   2.75004939  0.00000000  6.95327426
   2.75004939  2.75004939  0.00000000
   2.75004939  2.75004939  3.47663713
   2.75004939  2.75004939  6.95327426
   2.75004939  5.50009878  0.00000000
   2.75004939  5.50009878  3.47663713
   2.75004939  5.50009878  6.95327426
   5.50009878  0.00000000  0.00000000
   5.50009878  0.00000000  3.47663713
   5.50009878  0.00000000  6.95327426
   5.50009878  2.75004939  0.00000000
   5.50009878  2.75004939  3.47663713
   5.50009878  2.75004939  6.95327426
   5.50009878  5.50009878  0.00000000
   5.50009878  5.50009878  3.47663713
   5.50009878  5.50009878  6.95327426
   1.37502469  1.37502469  1.73831857
   1.37502469  1.37502469  5.21495570
   1.37502469  1.37502469  8.69159283
   1.37502469  4.12507408  1.73831857
   1.37502469  4.12507408  5.21495570
   1.37502469  4.12507408  8.69159283
   1.37502469  6.87512347  1.73831857
   1.37502469  6.87512347  5.21495570
   1.37502469  6.87512347  8.69159283
   4.12507408  1.37502469  1.73831857
   4.12507408  1.37502469  5.21495570
   4.12507408  1.37502469  8.69159283
   4.12507408  4.12507408  1.73831857
   4.12507408  4.12507408  5.21495570
   4.12507408  4.12507408  8.69159283
   4.12507408  6.87512347  1.73831857
   4.12507408  6.87512347  5.21495570
   4.12507408  6.87512347  8.69159283
   6.87512347  1.37502469  1.73831857
   6.87512347  1.37502469  5.21495570
   6.87512347  1.37502469  8.69159283
   6.87512347  4.12507408  1.73831857
   6.87512347  4.12507408  5.21495570
   6.87512347  4.12507408  8.69159283
   6.87512347  6.87512347  1.73831857
   6.87512347  6.87512347  5.21495570
   6.87512347  6.87512347  8.69159283
 


--------------------------------------------------------------------------------------------------------


 k-point  1 :   0.0000 0.0000 0.0000  plane waves:   13099
 k-point  2 :   0.2000 0.0000 0.0000  plane waves:   13101
 k-point  3 :   0.4000 0.0000 0.0000  plane waves:   13111
 k-point  4 :   0.0000 0.2000 0.0000  plane waves:   13101
 k-point  5 :   0.2000 0.2000 0.0000  plane waves:   13137
 k-point  6 :   0.4000 0.2000 0.0000  plane waves:   13119
 k-point  7 :   0.0000 0.4000 0.0000  plane waves:   13111
 k-point  8 :   0.2000 0.4000 0.0000  plane waves:   13119
 k-point  9 :   0.4000 0.4000 0.0000  plane waves:   13129
 k-point 10 :   0.0000 0.0000 0.2500  plane waves:   13134
 k-point 11 :   0.2000 0.0000 0.2500  plane waves:   13149
 k-point 12 :   0.4000 0.0000 0.2500  plane waves:   13119
 k-point 13 :   0.0000 0.2000 0.2500  plane waves:   13149
 k-point 14 :   0.2000 0.2000 0.2500  plane waves:   13145
 k-point 15 :   0.4000 0.2000 0.2500  plane waves:   13134
 k-point 16 :   0.0000 0.4000 0.2500  plane waves:   13119
 k-point 17 :   0.2000 0.4000 0.2500  plane waves:   13134
 k-point 18 :   0.4000 0.4000 0.2500  plane waves:   13108
 k-point 19 :   0.0000 0.0000 0.5000  plane waves:   13186
 k-point 20 :   0.2000 0.0000 0.5000  plane waves:   13124
 k-point 21 :   0.4000 0.0000 0.5000  plane waves:   13152
 k-point 22 :   0.0000 0.2000 0.5000  plane waves:   13124
 k-point 23 :   0.2000 0.2000 0.5000  plane waves:   13136
 k-point 24 :   0.4000 0.2000 0.5000  plane waves:   13128
 k-point 25 :   0.0000 0.4000 0.5000  plane waves:   13152
 k-point 26 :   0.2000 0.4000 0.5000  plane waves:   13128
 k-point 27 :   0.4000 0.4000 0.5000  plane waves:   13112

 maximum and minimum number of plane-waves per node :      3304     3246

 maximum number of plane-waves:     13186
 maximum index in each direction: 
   IXMAX=   13   IYMAX=   13   IZMAX=   17
   IXMIN=  -13   IYMIN=  -13   IZMIN=  -17


 parallel 3D FFT for wavefunctions:
    minimum data exchange during FFTs selected (reduces bandwidth)
 parallel 3D FFT for charge:
    minimum data exchange during FFTs selected (reduces bandwidth)


 total amount of memory used by VASP MPI-rank0   842526. kBytes
=======================================================================

   base      :      30000. kBytes
   nonl-proj :      28494. kBytes
   fftplans  :      31580. kBytes
   grid      :      21385. kBytes
   one-center:        435. kBytes
   wavefun   :     730632. kBytes
 
     INWAV:  cpu time    0.0000: real time    0.0000
 Broyden mixing: mesh for mixing (old mesh)
   NGX = 27   NGY = 27   NGZ = 35
  (NGX  =108   NGY  =108   NGZ  =140)
  gives a total of  25515 points

 initial charge density was supplied:
 charge density of overlapping atoms calculated
 number of electron     270.0000000 magnetization      -3.0000000
 keeping initial charge density in first step


--------------------------------------------------------------------------------------------------------


 Maximum index for augmentation-charges        10967 (set IRDMAX)


--------------------------------------------------------------------------------------------------------


 First call to EWALD:  gamma=   0.199
 Maximum number of real-space cells 3x 3x 2
 Maximum number of reciprocal cells 3x 3x 3

    FEWALD:  cpu time    0.0024: real time    0.0024


--------------------------------------- Iteration      1(   1)  ---------------------------------------


    POTLOK:  cpu time    0.3961: real time    0.3969
    SETDIJ:  cpu time    0.4808: real time    0.4824
    TRIAL :  cpu time   28.1147: real time   29.9426
    CORREC:  cpu time    0.0053: real time    0.0054
    --------------------------------------------
      LOOP:  cpu time   29.2456: real time   31.0831

 eigenvalue-minimisations  : 17496
 total energy-change (2. order) : 0.2065536E+04  (-0.8686763E+04)
 number of electron     270.0000000 magnetization      -3.0000000
 augmentation part      270.0000000 magnetization      -3.0000000

 Free energy of the ion-electron system (eV)
  ---------------------------------------------------
  alpha Z        PSCENC =       798.38614055
  Ewald energy   TEWEN  =    -12901.57693327
  -Hartree energ DENC   =     -2855.60785864
  -exchange      EXHF   =         0.00000000
  -V(xc)+E(xc)   XCENC  =      -996.23339841
  PAW double counting   =     12741.82587617   -11476.22345381
  entropy T*S    EENTRO =         0.00690221
  eigenvalues    EBANDS =      4057.28429364
  atomic energy  EATOM  =     12697.67401269
  ---------------------------------------------------
  free energy    TOTEN  =      2065.53558112 eV

  energy without entropy =     2065.52867891  energy(sigma->0) =     2065.53328039


--------------------------------------------------------------------------------------------------------




--------------------------------------- Iteration      1(   2)  ---------------------------------------


    TRIAL :  cpu time   28.6697: real time   28.9438
    CORREC:  cpu time    0.0065: real time    0.0074
    --------------------------------------------
      LOOP:  cpu time   28.6773: real time   28.9544

 eigenvalue-minimisations  : 17496
 total energy-change (2. order) :-0.2126150E+04  (-0.2087849E+04)
 number of electron     270.0000000 magnetization      -3.0000000
 augmentation part      270.0000000 magnetization      -3.0000000

 Free energy of the ion-electron system (eV)
  ---------------------------------------------------
  alpha Z        PSCENC =       798.38614055
  Ewald energy   TEWEN  =    -12901.57693327
  -Hartree energ DENC   =     -2855.60785864
  -exchange      EXHF   =         0.00000000
  -V(xc)+E(xc)   XCENC  =      -996.23339841
  PAW double counting   =     12741.82587617   -11476.22345381
  entropy T*S    EENTRO =        -0.00576392
  eigenvalues    EBANDS =      1931.14686097
  atomic energy  EATOM  =     12697.67401269
  ---------------------------------------------------
  free energy    TOTEN  =       -60.61451768 eV

  energy without entropy =      -60.60875376  energy(sigma->0) =      -60.61259637


--------------------------------------------------------------------------------------------------------




--------------------------------------- Iteration      1(   3)  ---------------------------------------


    TRIAL :  cpu time   39.4887: real time   41.1439
    CORREC:  cpu time    0.0077: real time    0.0078
    --------------------------------------------
      LOOP:  cpu time   39.4985: real time   41.1554

 eigenvalue-minimisations  : 26326
 total energy-change (2. order) :-0.2843447E+03  (-0.2580570E+03)
 number of electron     270.0000000 magnetization      -3.0000000
 augmentation part      270.0000000 magnetization      -3.0000000

 Free energy of the ion-electron system (eV)
  ---------------------------------------------------
  alpha Z        PSCENC =       798.38614055
  Ewald energy   TEWEN  =    -12901.57693327
  -Hartree energ DENC   =     -2855.60785864
  -exchange      EXHF   =         0.00000000
  -V(xc)+E(xc)   XCENC  =      -996.23339841
  PAW double counting   =     12741.82587617   -11476.22345381
  entropy T*S    EENTRO =         0.00413374
  eigenvalues    EBANDS =      1646.79222029
  atomic energy  EATOM  =     12697.67401269
  ---------------------------------------------------
  free energy    TOTEN  =      -344.95926070 eV

  energy without entropy =     -344.96339444  energy(sigma->0) =     -344.96063861


--------------------------------------------------------------------------------------------------------




--------------------------------------- Iteration      1(   4)  ---------------------------------------


    TRIAL :  cpu time   42.1938: real time   43.1177
    CORREC:  cpu time    0.0080: real time    0.0082
    --------------------------------------------
      LOOP:  cpu time   42.2038: real time   43.1293

 eigenvalue-minimisations  : 28464
 total energy-change (2. order) :-0.5152297E+02  (-0.4620140E+02)
 number of electron     270.0000000 magnetization      -3.0000000
 augmentation part      270.0000000 magnetization      -3.0000000

 Free energy of the ion-electron system (eV)
  ---------------------------------------------------
  alpha Z        PSCENC =       798.38614055
  Ewald energy   TEWEN  =    -12901.57693327
  -Hartree energ DENC   =     -2855.60785864
  -exchange      EXHF   =         0.00000000
  -V(xc)+E(xc)   XCENC  =      -996.23339841
  PAW double counting   =     12741.82587617   -11476.22345381
  entropy T*S    EENTRO =        -0.00355920
  eigenvalues    EBANDS =      1595.27694497
  atomic energy  EATOM  =     12697.67401269
  ---------------------------------------------------
  free energy    TOTEN  =      -396.48222896 eV

  energy without entropy =     -396.47866976  energy(sigma->0) =     -396.48104256


--------------------------------------------------------------------------------------------------------




--------------------------------------- Iteration      1(   5)  ---------------------------------------


    TRIAL :  cpu time   43.6113: real time   44.6653
    CORREC:  cpu time    0.0108: real time    0.0117
    --------------------------------------------
      LOOP:  cpu time   43.6232: real time   44.6805

 eigenvalue-minimisations  : 29600
 total energy-change (2. order) :-0.6594413E+01  (-0.6253935E+01)
 number of electron     270.0000000 magnetization      -3.0000000
 augmentation part      270.0000000 magnetization      -3.0000000

 Free energy of the ion-electron system (eV)
  ---------------------------------------------------
  alpha Z        PSCENC =       798.38614055
  Ewald energy   TEWEN  =    -12901.57693327
  -Hartree energ DENC   =     -2855.60785864
  -exchange      EXHF   =         0.00000000
  -V(xc)+E(xc)   XCENC  =      -996.23339841
  PAW double counting   =     12741.82587617   -11476.22345381
  entropy T*S    EENTRO =        -0.01632984
  eigenvalues    EBANDS =      1588.69530298
  atomic energy  EATOM  =     12697.67401269
  ---------------------------------------------------
  free energy    TOTEN  =      -403.07664158 eV

  energy without entropy =     -403.06031175  energy(sigma->0) =     -403.07119830


--------------------------------------------------------------------------------------------------------




--------------------------------------- Iteration      1(   6)  ---------------------------------------


    TRIAL :  cpu time   43.4135: real time   44.3922
    CORREC:  cpu time    0.0083: real time    0.0092
    --------------------------------------------
      LOOP:  cpu time   43.4711: real time   44.4529

 eigenvalue-minimisations  : 29408
 total energy-change (2. order) :-0.5871294E+00  (-0.5674174E+00)
 number of electron     270.0000000 magnetization      -3.0000000
 augmentation part      270.0000000 magnetization      -3.0000000

 Free energy of the ion-electron system (eV)
  ---------------------------------------------------
  alpha Z        PSCENC =       798.38614055
  Ewald energy   TEWEN  =    -12901.57693327
  -Hartree energ DENC   =     -2855.60785864
  -exchange      EXHF   =         0.00000000
  -V(xc)+E(xc)   XCENC  =      -996.23339841
  PAW double counting   =     12741.82587617   -11476.22345381
  entropy T*S    EENTRO =        -0.01735917
  eigenvalues    EBANDS =      1588.10920297
  atomic energy  EATOM  =     12697.67401269
  ---------------------------------------------------
  free energy    TOTEN  =      -403.66377094 eV

  energy without entropy =     -403.64641176  energy(sigma->0) =     -403.65798454


--------------------------------------------------------------------------------------------------------




--------------------------------------- Iteration      1(   7)  ---------------------------------------


    TRIAL :  cpu time   44.5270: real time   45.5442
    CORREC:  cpu time    0.0082: real time    0.0091
    --------------------------------------------
      LOOP:  cpu time   44.5360: real time   45.5566

 eigenvalue-minimisations  : 29920
 total energy-change (2. order) :-0.6885740E-01  (-0.6742500E-01)
 number of electron     270.0000000 magnetization      -3.0000000
 augmentation part      270.0000000 magnetization      -3.0000000

 Free energy of the ion-electron system (eV)
  ---------------------------------------------------
  alpha Z        PSCENC =       798.38614055
  Ewald energy   TEWEN  =    -12901.57693327
  -Hartree energ DENC   =     -2855.60785864
  -exchange      EXHF   =         0.00000000
  -V(xc)+E(xc)   XCENC  =      -996.23339841
  PAW double counting   =     12741.82587617   -11476.22345381
  entropy T*S    EENTRO =        -0.01676812
  eigenvalues    EBANDS =      1588.03975451
  atomic energy  EATOM  =     12697.67401269
  ---------------------------------------------------
  free energy    TOTEN  =      -403.73262834 eV

  energy without entropy =     -403.71586022  energy(sigma->0) =     -403.72703897


--------------------------------------------------------------------------------------------------------




--------------------------------------- Iteration      1(   8)  ---------------------------------------


    TRIAL :  cpu time   43.2463: real time   43.5289
    CORREC:  cpu time    0.0088: real time    0.0090
    CHARGE:  cpu time    1.4862: real time    1.4861
    --------------------------------------------
      LOOP:  cpu time   44.7429: real time   45.0277

 eigenvalue-minimisations  : 28832
 total energy-change (2. order) :-0.8121805E-02  (-0.8009546E-02)
 number of electron     269.9999995 magnetization      -1.5752227
 augmentation part       64.2087209 magnetization      -0.9796497

 Free energy of the ion-electron system (eV)
  ---------------------------------------------------
  alpha Z        PSCENC =       798.38614055
  Ewald energy   TEWEN  =    -12901.57693327
  -Hartree energ DENC   =     -2855.60785864
  -exchange      EXHF   =         0.00000000
  -V(xc)+E(xc)   XCENC  =      -996.23339841
  PAW double counting   =     12741.82587617   -11476.22345381
  entropy T*S    EENTRO =        -0.01641168
  eigenvalues    EBANDS =      1588.03127627
  atomic energy  EATOM  =     12697.67401269
  ---------------------------------------------------
  free energy    TOTEN  =      -403.74075014 eV

  energy without entropy =     -403.72433846  energy(sigma->0) =     -403.73527958


--------------------------------------------------------------------------------------------------------




--------------------------------------- Iteration      1(   9)  ---------------------------------------


    POTLOK:  cpu time    0.3976: real time    0.3976
    SETDIJ:  cpu time    0.4584: real time    0.4583
    TRIAL :  cpu time   14.4844: real time   15.4069
    CORREC:  cpu time    4.7690: real time    4.7842
    CHARGE:  cpu time    1.4776: real time    1.4918
    --------------------------------------------
      LOOP:  cpu time   21.5977: real time   22.5527

 eigenvalue-minimisations  :     0
 total energy-change (2. order) : 0.2994643E+03  (-0.2194087E+03)
 number of electron     269.9999993 magnetization      -2.1352528
 augmentation part       82.7464770 magnetization      -1.4786948

 Free energy of the ion-electron system (eV)
  ---------------------------------------------------
  alpha Z        PSCENC =       798.38614055
  Ewald energy   TEWEN  =    -12901.57693327
  -Hartree energ DENC   =     -1273.28794653
  -exchange      EXHF   =         0.00000000
  -V(xc)+E(xc)   XCENC  =     -1041.83690300
  PAW double counting   =     19168.63885331   -17749.29342054
  entropy T*S    EENTRO =        -0.00138719
  eigenvalues    EBANDS =       197.03618530
  atomic energy  EATOM  =     12697.67401269
  ---------------------------------------------------
  free energy    TOTEN  =      -104.27642316 eV

  energy without entropy =     -104.27503597  energy(sigma->0) =     -104.27596077


--------------------------------------------------------------------------------------------------------




--------------------------------------- Iteration      1(  10)  ---------------------------------------


    POTLOK:  cpu time    0.3908: real time    0.3908
    SETDIJ:  cpu time    0.4767: real time    0.4767
    TRIAL :  cpu time   15.2601: real time   15.4063
    CORREC:  cpu time    4.7505: real time    4.7594
    CHARGE:  cpu time    1.4611: real time    1.4610
    --------------------------------------------
      LOOP:  cpu time   22.3457: real time   22.5029

 eigenvalue-minimisations  :     0
 total energy-change (2. order) :-0.2141031E+03  (-0.1200621E+02)
 number of electron     269.9999993 magnetization      -2.2415746
 augmentation part       86.7884657 magnetization      -1.4352809

 Free energy of the ion-electron system (eV)
  ---------------------------------------------------
  alpha Z        PSCENC =       798.38614055
  Ewald energy   TEWEN  =    -12901.57693327
  -Hartree energ DENC   =     -2119.58704006
  -exchange      EXHF   =         0.00000000
  -V(xc)+E(xc)   XCENC  =     -1012.27122827
  PAW double counting   =     20681.99017216   -19446.13438683
  entropy T*S    EENTRO =        -0.00023018
  eigenvalues    EBANDS =       983.14108632
  atomic energy  EATOM  =     12697.67401269
  ---------------------------------------------------
  free energy    TOTEN  =      -318.37956389 eV

  energy without entropy =     -318.37933372  energy(sigma->0) =     -318.37948717


--------------------------------------------------------------------------------------------------------




--------------------------------------- Iteration      1(  11)  ---------------------------------------


    POTLOK:  cpu time    0.3910: real time    0.3910
    SETDIJ:  cpu time    0.4628: real time    0.4802
    TRIAL :  cpu time   15.1867: real time   15.2163
    CORREC:  cpu time    4.9600: real time    5.7766
    CHARGE:  cpu time    1.5055: real time    1.5055
    --------------------------------------------
      LOOP:  cpu time   22.5468: real time   23.4117

 eigenvalue-minimisations  :     0
 total energy-change (2. order) :-0.1131546E+02  (-0.1104308E+02)
 number of electron     269.9999992 magnetization      -2.2180629
 augmentation part       89.0752214 magnetization      -1.6016167

 Free energy of the ion-electron system (eV)
  ---------------------------------------------------
  alpha Z        PSCENC =       798.38614055
  Ewald energy   TEWEN  =    -12901.57693327
  -Hartree energ DENC   =     -2362.13433340
  -exchange      EXHF   =         0.00000000
  -V(xc)+E(xc)   XCENC  =     -1003.45018766
  PAW double counting   =     21609.40971068   -20413.22634755
  entropy T*S    EENTRO =        -0.01189308
  eigenvalues    EBANDS =      1245.22313961
  atomic energy  EATOM  =     12697.67401269
  ---------------------------------------------------
  free energy    TOTEN  =      -329.69502852 eV

  energy without entropy =     -329.68313544  energy(sigma->0) =     -329.69106416


--------------------------------------------------------------------------------------------------------




--------------------------------------- Iteration      1(  12)  ---------------------------------------


    POTLOK:  cpu time    0.3935: real time    0.3935
    SETDIJ:  cpu time    0.5204: real time    0.5204
    TRIAL :  cpu time   14.5272: real time   14.5829
    CORREC:  cpu time    4.7342: real time    4.7948
    CHARGE:  cpu time    1.4957: real time    1.5039
    --------------------------------------------
      LOOP:  cpu time   21.6893: real time   21.8154

 eigenvalue-minimisations  :     0
 total energy-change (2. order) :-0.1109783E+02  (-0.1140187E+02)
 number of electron     269.9999993 magnetization      -2.5654031
 augmentation part       86.8080024 magnetization      -1.8030281

 Free energy of the ion-electron system (eV)
  ---------------------------------------------------
  alpha Z        PSCENC =       798.38614055
  Ewald energy   TEWEN  =    -12901.57693327
  -Hartree energ DENC   =     -2556.28779211
  -exchange      EXHF   =         0.00000000
  -V(xc)+E(xc)   XCENC  =      -996.97296656
  PAW double counting   =     21820.47211444   -20633.26116527
  entropy T*S    EENTRO =        -0.01777985
  eigenvalues    EBANDS =      1430.78562133
  atomic energy  EATOM  =     12697.67401269
  ---------------------------------------------------
  free energy    TOTEN  =      -340.79286127 eV

  energy without entropy =     -340.77508143  energy(sigma->0) =     -340.78693466


--------------------------------------------------------------------------------------------------------




--------------------------------------- Iteration      1(  13)  ---------------------------------------


    POTLOK:  cpu time    0.3922: real time    0.3921
    SETDIJ:  cpu time    0.4800: real time    0.4800
    TRIAL :  cpu time   14.9242: real time   15.0231
    CORREC:  cpu time    4.7248: real time    5.5333
    CHARGE:  cpu time    1.4693: real time    1.4692
    --------------------------------------------
      LOOP:  cpu time   21.9961: real time   22.9046

 eigenvalue-minimisations  :     0
 total energy-change (2. order) :-0.1126014E+02  (-0.8423778E+00)
 number of electron     269.9999993 magnetization      -2.7912422
 augmentation part       86.3116916 magnetization      -1.8581223

 Free energy of the ion-electron system (eV)
  ---------------------------------------------------
  alpha Z        PSCENC =       798.38614055
  Ewald energy   TEWEN  =    -12901.57693327
  -Hartree energ DENC   =     -2521.25830433
  -exchange      EXHF   =         0.00000000
  -V(xc)+E(xc)   XCENC  =      -999.02708439
  PAW double counting   =     21253.74592855   -20015.98630040
  entropy T*S    EENTRO =        -0.02049477
  eigenvalues    EBANDS =      1336.00731972
  atomic energy  EATOM  =     12697.67401269
  ---------------------------------------------------
  free energy    TOTEN  =      -352.05300074 eV

  energy without entropy =     -352.03250596  energy(sigma->0) =     -352.04616915


--------------------------------------------------------------------------------------------------------




--------------------------------------- Iteration      1(  14)  ---------------------------------------


    POTLOK:  cpu time    0.3909: real time    0.3909
    SETDIJ:  cpu time    0.4596: real time    0.4596
    TRIAL :  cpu time   14.5432: real time   15.3576
    CORREC:  cpu time    4.7322: real time    4.7425
    CHARGE:  cpu time    1.4631: real time    1.5161
    --------------------------------------------
      LOOP:  cpu time   21.5921: real time   22.4704

 eigenvalue-minimisations  :     0
 total energy-change (2. order) :-0.8379748E+00  (-0.1312204E+01)
 number of electron     269.9999992 magnetization      -2.8748479
 augmentation part       85.9054693 magnetization      -1.8816220

 Free energy of the ion-electron system (eV)
  ---------------------------------------------------
  alpha Z        PSCENC =       798.38614055
  Ewald energy   TEWEN  =    -12901.57693327
  -Hartree energ DENC   =     -2495.19319899
  -exchange      EXHF   =         0.00000000
  -V(xc)+E(xc)   XCENC  =     -1000.01728280
  PAW double counting   =     20971.44003610   -19725.40801070
  entropy T*S    EENTRO =        -0.01927626
  eigenvalues    EBANDS =      1301.82475569
  atomic energy  EATOM  =     12697.67401269
  ---------------------------------------------------
  free energy    TOTEN  =      -352.89097551 eV

  energy without entropy =     -352.87169924  energy(sigma->0) =     -352.88455008


--------------------------------------------------------------------------------------------------------




--------------------------------------- Iteration      1(  15)  ---------------------------------------


    POTLOK:  cpu time    0.3920: real time    0.3920
    SETDIJ:  cpu time    0.4793: real time    0.4792
    TRIAL :  cpu time   14.5720: real time   14.6693
    CORREC:  cpu time    4.7374: real time    4.7908
    CHARGE:  cpu time    1.7653: real time    1.7760
    --------------------------------------------
      LOOP:  cpu time   21.9473: real time   22.1095

 eigenvalue-minimisations  :     0
 total energy-change (2. order) :-0.1310630E+01  (-0.6273216E+00)
 number of electron     269.9999992 magnetization      -2.8665842
 augmentation part       86.5437335 magnetization      -1.9251631

 Free energy of the ion-electron system (eV)
  ---------------------------------------------------
  alpha Z        PSCENC =       798.38614055
  Ewald energy   TEWEN  =    -12901.57693327
  -Hartree energ DENC   =     -2459.59005266
  -exchange      EXHF   =         0.00000000
  -V(xc)+E(xc)   XCENC  =     -1001.33274442
  PAW double counting   =     20107.87808393   -18851.45650418
  entropy T*S    EENTRO =        -0.01900189
  eigenvalues    EBANDS =      1255.83566827
  atomic energy  EATOM  =     12697.67401269
  ---------------------------------------------------
  free energy    TOTEN  =      -354.20160535 eV

  energy without entropy =     -354.18260347  energy(sigma->0) =     -354.19527139


--------------------------------------------------------------------------------------------------------




--------------------------------------- Iteration      1(  16)  ---------------------------------------


    POTLOK:  cpu time    0.3912: real time    0.3911
    SETDIJ:  cpu time    0.5140: real time    0.5238
    TRIAL :  cpu time   15.0368: real time   15.0806
    CORREC:  cpu time    4.7298: real time    4.7427
    CHARGE:  cpu time    1.5166: real time    1.5166
    --------------------------------------------
      LOOP:  cpu time   22.9291: real time   22.9964

 eigenvalue-minimisations  :     0
 total energy-change (2. order) :-0.6236713E+00  (-0.2701722E+00)
 number of electron     269.9999992 magnetization      -2.9739611
 augmentation part       87.0999831 magnetization      -1.9833025

 Free energy of the ion-electron system (eV)
  ---------------------------------------------------
  alpha Z        PSCENC =       798.38614055
  Ewald energy   TEWEN  =    -12901.57693327
  -Hartree energ DENC   =     -2483.17480908
  -exchange      EXHF   =         0.00000000
  -V(xc)+E(xc)   XCENC  =     -1000.43504160
  PAW double counting   =     19746.61177451   -18494.60994355
  entropy T*S    EENTRO =        -0.01913409
  eigenvalues    EBANDS =      1282.31852494
  atomic energy  EATOM  =     12697.67401269
  ---------------------------------------------------
  free energy    TOTEN  =      -354.82527670 eV

  energy without entropy =     -354.80614260  energy(sigma->0) =     -354.81889867


--------------------------------------------------------------------------------------------------------




--------------------------------------- Iteration      1(  17)  ---------------------------------------


    POTLOK:  cpu time    0.3919: real time    0.3919
    SETDIJ:  cpu time    0.4934: real time    0.4934
    TRIAL :  cpu time   14.5042: real time   15.4036
    CORREC:  cpu time    4.7115: real time    4.7363
    CHARGE:  cpu time    1.4887: real time    1.4886
    --------------------------------------------
      LOOP:  cpu time   21.5912: real time   22.5156

 eigenvalue-minimisations  :     0
 total energy-change (2. order) :-0.2711556E+00  (-0.2037378E+00)
 number of electron     269.9999992 magnetization      -3.1376690
 augmentation part       87.2993091 magnetization      -2.0793605

 Free energy of the ion-electron system (eV)
  ---------------------------------------------------
  alpha Z        PSCENC =       798.38614055
  Ewald energy   TEWEN  =    -12901.57693327
  -Hartree energ DENC   =     -2507.58680655
  -exchange      EXHF   =         0.00000000
  -V(xc)+E(xc)   XCENC  =      -999.42836930
  PAW double counting   =     19623.31490866   -18376.65910176
  entropy T*S    EENTRO =        -0.01884569
  eigenvalues    EBANDS =      1310.79885075
  atomic energy  EATOM  =     12697.67401269
  ---------------------------------------------------
  free energy    TOTEN  =      -355.09643233 eV

  energy without entropy =     -355.07758664  energy(sigma->0) =     -355.09015044


--------------------------------------------------------------------------------------------------------




--------------------------------------- Iteration      1(  18)  ---------------------------------------


    POTLOK:  cpu time    0.3927: real time    0.3927
    SETDIJ:  cpu time    0.4829: real time    0.4828
    TRIAL :  cpu time   15.0970: real time   15.2659
    CORREC:  cpu time    4.7002: real time    4.7010
    CHARGE:  cpu time    1.4956: real time    1.5235
    --------------------------------------------
      LOOP:  cpu time   22.1722: real time   22.3713

 eigenvalue-minimisations  :     0
 total energy-change (2. order) :-0.2043718E+00  (-0.2398791E+00)
 number of electron     269.9999992 magnetization      -3.1545234
 augmentation part       87.1479425 magnetization      -2.1443969

 Free energy of the ion-electron system (eV)
  ---------------------------------------------------
  alpha Z        PSCENC =       798.38614055
  Ewald energy   TEWEN  =    -12901.57693327
  -Hartree energ DENC   =     -2515.10341231
  -exchange      EXHF   =         0.00000000
  -V(xc)+E(xc)   XCENC  =      -998.95216077
  PAW double counting   =     19548.10017003   -18303.42091095
  entropy T*S    EENTRO =        -0.01968028
  eigenvalues    EBANDS =      1319.61113560
  atomic energy  EATOM  =     12697.67401269
  ---------------------------------------------------
  free energy    TOTEN  =      -355.30080413 eV

  energy without entropy =     -355.28112386  energy(sigma->0) =     -355.29424404


--------------------------------------------------------------------------------------------------------




--------------------------------------- Iteration      1(  19)  ---------------------------------------


    POTLOK:  cpu time    0.3921: real time    0.3921
    SETDIJ:  cpu time    0.4882: real time    0.4881
    TRIAL :  cpu time   14.5604: real time   15.3282
    CORREC:  cpu time    4.6943: real time    5.4419
    CHARGE:  cpu time    1.5336: real time    1.5336
    --------------------------------------------
      LOOP:  cpu time   21.6710: real time   23.1864

 eigenvalue-minimisations  :     0
 total energy-change (2. order) :-0.2391482E+00  (-0.6312835E-01)
 number of electron     269.9999992 magnetization      -3.2040898
 augmentation part       86.9475780 magnetization      -2.1769750

 Free energy of the ion-electron system (eV)
  ---------------------------------------------------
  alpha Z        PSCENC =       798.38614055
  Ewald energy   TEWEN  =    -12901.57693327
  -Hartree energ DENC   =     -2504.55597538
  -exchange      EXHF   =         0.00000000
  -V(xc)+E(xc)   XCENC  =      -999.00567955
  PAW double counting   =     19470.47029254   -18224.14030493
  entropy T*S    EENTRO =        -0.02022474
  eigenvalues    EBANDS =      1307.22817532
  atomic energy  EATOM  =     12697.67401269
  ---------------------------------------------------
  free energy    TOTEN  =      -355.53995231 eV

  energy without entropy =     -355.51972757  energy(sigma->0) =     -355.53321073


--------------------------------------------------------------------------------------------------------




--------------------------------------- Iteration      1(  20)  ---------------------------------------


    POTLOK:  cpu time    0.3907: real time    0.3907
    SETDIJ:  cpu time    0.4686: real time    0.4686
    TRIAL :  cpu time   14.5751: real time   14.6482
    CORREC:  cpu time    4.7446: real time    4.8036
    CHARGE:  cpu time    1.4932: real time    1.5007
    --------------------------------------------
      LOOP:  cpu time   21.7066: real time   21.8464

 eigenvalue-minimisations  :     0
 total energy-change (2. order) :-0.6299526E-01  (-0.7282149E-01)
 number of electron     269.9999992 magnetization      -3.2658571
 augmentation part       86.7726560 magnetization      -2.2119352

 Free energy of the ion-electron system (eV)
  ---------------------------------------------------
  alpha Z        PSCENC =       798.38614055
  Ewald energy   TEWEN  =    -12901.57693327
  -Hartree energ DENC   =     -2494.70394903
  -exchange      EXHF   =         0.00000000
  -V(xc)+E(xc)   XCENC  =      -999.27198783
  PAW double counting   =     19449.61321421   -18201.23865237
  entropy T*S    EENTRO =        -0.02115600
  eigenvalues    EBANDS =      1295.53543222
  atomic energy  EATOM  =     12697.67401269
  ---------------------------------------------------
  free energy    TOTEN  =      -355.60294757 eV

  energy without entropy =     -355.58179158  energy(sigma->0) =     -355.59589557


--------------------------------------------------------------------------------------------------------




--------------------------------------- Iteration      1(  21)  ---------------------------------------


    POTLOK:  cpu time    0.3909: real time    0.3909
    SETDIJ:  cpu time    0.4616: real time    0.4616
    TRIAL :  cpu time   14.9226: real time   15.0710
    CORREC:  cpu time    5.4423: real time    5.4755
    CHARGE:  cpu time    1.4724: real time    1.4723
    --------------------------------------------
      LOOP:  cpu time   22.7059: real time   22.8890

 eigenvalue-minimisations  :     0
 total energy-change (2. order) :-0.7278343E-01  (-0.8009290E-01)
 number of electron     269.9999992 magnetization      -3.3557851
 augmentation part       86.7865647 magnetization      -2.2704075

 Free energy of the ion-electron system (eV)
  ---------------------------------------------------
  alpha Z        PSCENC =       798.38614055
  Ewald energy   TEWEN  =    -12901.57693327
  -Hartree energ DENC   =     -2488.25830719
  -exchange      EXHF   =         0.00000000
  -V(xc)+E(xc)   XCENC  =      -999.40213997
  PAW double counting   =     19442.52986585   -18192.63969002
  entropy T*S    EENTRO =        -0.02175188
  eigenvalues    EBANDS =      1287.63247635
  atomic energy  EATOM  =     12697.67401269
  ---------------------------------------------------
  free energy    TOTEN  =      -355.67573100 eV

  energy without entropy =     -355.65397912  energy(sigma->0) =     -355.66848037


--------------------------------------------------------------------------------------------------------




--------------------------------------- Iteration      1(  22)  ---------------------------------------


    POTLOK:  cpu time    0.3907: real time    0.3911
    SETDIJ:  cpu time    0.4565: real time    0.4572
    TRIAL :  cpu time   14.5060: real time   15.3290
    CORREC:  cpu time    4.7349: real time    4.7450
    CHARGE:  cpu time    1.4956: real time    1.5180
    --------------------------------------------
      LOOP:  cpu time   21.5883: real time   22.4467

 eigenvalue-minimisations  :     0
 total energy-change (2. order) :-0.7999619E-01  (-0.2912533E-01)
 number of electron     269.9999992 magnetization      -3.3926234
 augmentation part       86.9212249 magnetization      -2.3033349

 Free energy of the ion-electron system (eV)
  ---------------------------------------------------
  alpha Z        PSCENC =       798.38614055
  Ewald energy   TEWEN  =    -12901.57693327
  -Hartree energ DENC   =     -2492.72925994
  -exchange      EXHF   =         0.00000000
  -V(xc)+E(xc)   XCENC  =      -999.13543698
  PAW double counting   =     19462.63963202   -18213.47438565
  entropy T*S    EENTRO =        -0.02234049
  eigenvalues    EBANDS =      1292.48225527
  atomic energy  EATOM  =     12697.67401269
  ---------------------------------------------------
  free energy    TOTEN  =      -355.75572719 eV

  energy without entropy =     -355.73338670  energy(sigma->0) =     -355.74828036


--------------------------------------------------------------------------------------------------------




--------------------------------------- Iteration      1(  23)  ---------------------------------------


    POTLOK:  cpu time    0.3909: real time    0.3909
    SETDIJ:  cpu time    0.4596: real time    0.4595
    TRIAL :  cpu time   14.5523: real time   14.6517
    CORREC:  cpu time    4.7323: real time    4.7877
    CHARGE:  cpu time    2.1932: real time    2.2030
    --------------------------------------------
      LOOP:  cpu time   22.3376: real time   22.5027

 eigenvalue-minimisations  :     0
 total energy-change (2. order) :-0.2916853E-01  (-0.1517842E-01)
 number of electron     269.9999992 magnetization      -3.4398550
 augmentation part       86.9977699 magnetization      -2.3371819

 Free energy of the ion-electron system (eV)
  ---------------------------------------------------
  alpha Z        PSCENC =       798.38614055
  Ewald energy   TEWEN  =    -12901.57693327
  -Hartree energ DENC   =     -2501.10191393
  -exchange      EXHF   =         0.00000000
  -V(xc)+E(xc)   XCENC  =      -998.78863676
  PAW double counting   =     19481.02175198   -18233.55139123
  entropy T*S    EENTRO =        -0.02247617
  eigenvalues    EBANDS =      1302.17441474
  atomic energy  EATOM  =     12697.67401269
  ---------------------------------------------------
  free energy    TOTEN  =      -355.78489572 eV

  energy without entropy =     -355.76241955  energy(sigma->0) =     -355.77740366


--------------------------------------------------------------------------------------------------------




--------------------------------------- Iteration      1(  24)  ---------------------------------------


    POTLOK:  cpu time    0.3909: real time    0.3909
    SETDIJ:  cpu time    0.4864: real time    0.5054
    TRIAL :  cpu time   15.1767: real time   15.2581
    CORREC:  cpu time    4.7267: real time    4.7309
    CHARGE:  cpu time    1.5063: real time    1.5062
    --------------------------------------------
      LOOP:  cpu time   22.2917: real time   22.3975

 eigenvalue-minimisations  :     0
 total energy-change (2. order) :-0.1524022E-01  (-0.3506610E-01)
[...]
   45       -0.016  -0.016  -2.395  -2.426
   46       -0.024  -0.027  -2.411  -2.462
   47        0.013   0.020   2.257   2.290
   48       -0.018  -0.011  -2.403  -2.431
   49       -0.014  -0.015  -2.324  -2.352
   50        0.015   0.015   2.266   2.296
   51       -0.016  -0.016  -2.397  -2.428
   52       -0.013  -0.015  -2.323  -2.352
   53        0.015   0.015   2.268   2.298
   54       -0.016  -0.016  -2.397  -2.429
--------------------------------------------------
tot          0.009  -0.005  -3.910  -3.906
 
    FORLOC:  cpu time    0.0588: real time    0.0588
    FORNL :  cpu time   22.2314: real time   23.0720
    STRESS:  cpu time   32.5140: real time   33.3769
    FORCOR:  cpu time    0.4375: real time    0.4919
    OFIELD:  cpu time    0.0022: real time    0.0022

  FORCE on cell =-STRESS in cart. coord.  units (eV):
  Direction    XX          YY          ZZ          XY          YZ          ZX
  --------------------------------------------------------------------------------------
  Alpha Z   798.38614   798.38614   798.38614
  Ewald   -4053.61603 -4053.61603 -4794.40593    -0.00000    -0.00000    -0.00000
  Hartree  1082.41955  1084.99659   334.32279    -0.00000    -0.00000    -0.00000
  E(xc)   -1140.83343 -1141.49248 -1139.82189    -0.00000     0.00000    -0.00000
  Local     373.98584   366.68909  1902.03849     0.00000     0.00000    -0.00000
  n-local  -169.47993  -171.35805  -177.26932     0.36199    -0.25628    -0.33251
  augment   782.44858   785.21185   768.46762     0.00000     0.00001     0.00001
  Kinetic  2332.37209  2337.43848  2311.11733    -2.12775    -1.24775    -1.01277
  Fock        0.00000     0.00000     0.00000     0.00000     0.00000     0.00000
  -------------------------------------------------------------------------------------
  Total       5.68281     6.25558     2.83523     0.00000     0.00000     0.00000
  in kB      12.82536    14.11804     6.39874     0.00000     0.00000     0.00000
  external pressure =       11.11 kB  Pullay stress =        0.00 kB


 VOLUME and BASIS-vectors are now :
 -----------------------------------------------------------------------------
  energy-cutoff  :      404.80
  volume of cell :      709.91
      direct lattice vectors                 reciprocal lattice vectors
     8.250148166  0.000000000  0.000000000     0.121209944  0.000000000  0.000000000
     0.000000000  8.250148166  0.000000000     0.000000000  0.121209944  0.000000000
     0.000000000  0.000000000 10.429911392     0.000000000  0.000000000  0.095878092

  length of vectors
     8.250148166  8.250148166 10.429911392     0.121209944  0.121209944  0.095878092


 FORCES acting on ions:
    Electron-Ion                     Ewald-Force                    Non-Local-Force
 -----------------------------------------------------------------------------------------------
   -.144E-01 0.678E-01 0.371E-01   -.239E-08 -.239E-08 -.210E-08   0.150E-01 0.257E-01 -.130E-01
   -.882E-01 -.103E+00 0.250E-01   -.239E-08 -.239E-08 0.171E-08   0.865E-01 0.797E-01 0.234E-01
   -.513E-01 -.159E-01 -.637E-01   -.239E-08 -.239E-08 0.861E-08   0.136E+00 -.223E-01 -.109E-01
   -.144E-01 -.678E-01 0.371E-01   -.239E-08 -.802E-09 -.210E-08   0.150E-01 -.257E-01 -.130E-01
   -.882E-01 0.103E+00 0.250E-01   -.239E-08 -.802E-09 0.171E-08   0.865E-01 -.797E-01 0.234E-01
   -.513E-01 0.159E-01 -.637E-01   -.239E-08 -.802E-09 0.861E-08   0.136E+00 0.223E-01 -.109E-01
   0.156E+00 -.328E-08 0.641E-01   -.239E-08 0.631E-08 -.210E-08   -.911E-01 -.108E-18 0.146E-01
   0.124E-01 -.329E-08 -.163E-01   -.239E-08 0.631E-08 0.171E-08   -.442E-02 0.000E+00 0.178E-01
   -.142E-01 -.328E-08 -.863E-01   -.239E-08 0.631E-08 0.861E-08   0.128E+00 0.000E+00 0.141E-04
   0.144E-01 0.678E-01 0.371E-01   -.802E-09 -.239E-08 -.210E-08   -.150E-01 0.257E-01 -.130E-01
   0.882E-01 -.103E+00 0.250E-01   -.802E-09 -.239E-08 0.171E-08   -.865E-01 0.797E-01 0.234E-01
   0.513E-01 -.159E-01 -.637E-01   -.803E-09 -.239E-08 0.861E-08   -.136E+00 -.223E-01 -.109E-01
   0.144E-01 -.678E-01 0.371E-01   -.802E-09 -.802E-09 -.210E-08   -.150E-01 -.257E-01 -.130E-01
   0.882E-01 0.103E+00 0.250E-01   -.802E-09 -.802E-09 0.171E-08   -.865E-01 -.797E-01 0.234E-01
   0.513E-01 0.159E-01 -.637E-01   -.803E-09 -.802E-09 0.861E-08   -.136E+00 0.223E-01 -.109E-01
   -.156E+00 -.328E-08 0.641E-01   -.802E-09 0.631E-08 -.210E-08   0.911E-01 0.000E+00 0.146E-01
   -.124E-01 -.329E-08 -.163E-01   -.802E-09 0.631E-08 0.171E-08   0.442E-02 0.000E+00 0.178E-01
   0.142E-01 -.328E-08 -.863E-01   -.803E-09 0.631E-08 0.861E-08   -.128E+00 0.000E+00 0.141E-04
   -.326E-08 0.164E-01 0.352E-01   0.631E-08 -.239E-08 -.210E-08   -.542E-19 -.146E-01 -.638E-01
   -.328E-08 0.851E-03 0.116E+00   0.631E-08 -.239E-08 0.171E-08   0.000E+00 0.450E-02 -.585E-01
   -.328E-08 -.245E-01 -.929E-01   0.631E-08 -.239E-08 0.861E-08   0.434E-18 0.279E-02 0.509E-01
   -.326E-08 -.164E-01 0.352E-01   0.631E-08 -.802E-09 -.210E-08   0.108E-18 0.146E-01 -.638E-01
   -.328E-08 -.851E-03 0.116E+00   0.631E-08 -.802E-09 0.171E-08   0.000E+00 -.450E-02 -.585E-01
   -.328E-08 0.245E-01 -.929E-01   0.631E-08 -.802E-09 0.861E-08   -.217E-18 -.279E-02 0.509E-01
   -.327E-08 -.329E-08 0.215E-01   0.631E-08 0.631E-08 -.210E-08   0.000E+00 0.000E+00 -.433E-01
   -.329E-08 -.330E-08 0.122E+00   0.631E-08 0.631E-08 0.171E-08   0.000E+00 0.000E+00 -.955E-01
   -.328E-08 -.331E-08 -.257E-01   0.631E-08 0.631E-08 0.861E-08   0.000E+00 0.000E+00 0.405E-01
   0.471E-08 0.471E-08 0.361E-01   -.169E-07 -.169E-07 -.180E-07   0.000E+00 0.000E+00 -.679E-02
   0.479E-08 0.478E-08 -.961E-01   -.169E-07 -.169E-07 -.170E-08   0.000E+00 0.000E+00 0.574E-01
   0.470E-08 0.486E-08 0.708E-01   -.169E-07 -.169E-07 0.115E-07   0.000E+00 0.000E+00 -.158E+00
   0.489E-08 0.294E+00 0.351E-01   -.169E-07 0.802E-09 -.180E-07   0.000E+00 -.138E+00 -.660E-01
   0.485E-08 0.641E-01 0.188E+00   -.169E-07 0.802E-09 -.170E-08   0.000E+00 -.239E-01 -.244E+00
   0.477E-08 0.623E-01 -.197E+00   -.169E-07 0.802E-09 0.115E-07   0.000E+00 -.483E-01 0.210E+00
   0.489E-08 -.294E+00 0.351E-01   -.169E-07 0.130E-07 -.180E-07   0.000E+00 0.138E+00 -.660E-01
   0.485E-08 -.641E-01 0.188E+00   -.169E-07 0.130E-07 -.170E-08   0.000E+00 0.239E-01 -.244E+00
   0.477E-08 -.623E-01 -.197E+00   -.169E-07 0.130E-07 0.115E-07   0.000E+00 0.483E-01 0.210E+00
   0.241E+00 0.487E-08 -.129E+00   0.802E-09 -.169E-07 -.180E-07   -.983E-01 0.000E+00 0.209E+00
   0.753E-01 0.487E-08 0.272E-02   0.802E-09 -.169E-07 -.170E-08   -.435E-01 -.867E-18 0.177E-01
   0.176E+00 0.486E-08 0.223E+00   0.802E-09 -.169E-07 0.115E-07   -.117E-01 0.173E-17 -.332E+00
   -.170E+00 -.751E-01 -.585E-01   0.802E-09 0.802E-09 -.180E-07   0.179E+00 0.845E-01 0.171E+00
   0.202E-02 -.241E-01 -.465E-01   0.802E-09 0.802E-09 -.170E-08   -.947E-03 0.195E-01 0.320E-01
   0.303E+00 -.666E-02 0.557E-01   0.802E-09 0.802E-09 0.115E-07   -.105E+00 0.189E-01 -.866E-01
   -.170E+00 0.751E-01 -.585E-01   0.802E-09 0.130E-07 -.180E-07   0.179E+00 -.845E-01 0.171E+00
   0.202E-02 0.241E-01 -.465E-01   0.802E-09 0.130E-07 -.170E-08   -.947E-03 -.195E-01 0.320E-01
   0.303E+00 0.666E-02 0.557E-01   0.802E-09 0.130E-07 0.115E-07   -.105E+00 -.189E-01 -.866E-01
   -.241E+00 0.487E-08 -.129E+00   0.130E-07 -.169E-07 -.180E-07   0.983E-01 0.000E+00 0.209E+00
   -.753E-01 0.486E-08 0.272E-02   0.130E-07 -.169E-07 -.170E-08   0.435E-01 0.867E-18 0.177E-01
   -.176E+00 0.486E-08 0.223E+00   0.130E-07 -.169E-07 0.115E-07   0.117E-01 -.173E-17 -.332E+00
   0.170E+00 -.751E-01 -.585E-01   0.130E-07 0.802E-09 -.180E-07   -.179E+00 0.845E-01 0.171E+00
   -.202E-02 -.241E-01 -.465E-01   0.130E-07 0.802E-09 -.170E-08   0.947E-03 0.195E-01 0.320E-01
   -.303E+00 -.666E-02 0.557E-01   0.130E-07 0.802E-09 0.115E-07   0.105E+00 0.189E-01 -.866E-01
   0.170E+00 0.751E-01 -.585E-01   0.130E-07 0.130E-07 -.180E-07   -.179E+00 -.845E-01 0.171E+00
   -.202E-02 0.241E-01 -.465E-01   0.130E-07 0.130E-07 -.170E-08   0.947E-03 -.195E-01 0.320E-01
   -.303E+00 0.666E-02 0.557E-01   0.130E-07 0.130E-07 0.115E-07   0.105E+00 -.189E-01 -.866E-01
 -----------------------------------------------------------------------------------------------
   -.407E-07 -.405E-07 0.232E+00   -.614E-13 -.142E-13 0.128E-13   -.416E-16 -.312E-16 -.232E+00
 
 
 POSITION                                       TOTAL-FORCE (eV/Angst)
 -----------------------------------------------------------------------------------
      0.00000      0.00000      0.00000        -0.000206      0.092085      0.025172
      0.00000      0.00000      3.47664        -0.008862     -0.030652      0.045139
      0.00000      0.00000      6.95327         0.073394     -0.036730     -0.072573
      0.00000      2.75005      0.00000        -0.000206     -0.092085      0.025172
      0.00000      2.75005      3.47664        -0.008862      0.030652      0.045139
      0.00000      2.75005      6.95327         0.073394      0.036730     -0.072573
      0.00000      5.50010      0.00000         0.073439      0.000000      0.076736
      0.00000      5.50010      3.47664         0.008892      0.000000     -0.000487
      0.00000      5.50010      6.95327         0.103438      0.000000     -0.085456
      2.75005      0.00000      0.00000         0.000206      0.092085      0.025172
      2.75005      0.00000      3.47664         0.008862     -0.030652      0.045139
      2.75005      0.00000      6.95327        -0.073394     -0.036730     -0.072573
      2.75005      2.75005      0.00000         0.000206     -0.092085      0.025172
      2.75005      2.75005      3.47664         0.008862      0.030652      0.045139
      2.75005      2.75005      6.95327        -0.073394      0.036730     -0.072573
      2.75005      5.50010      0.00000        -0.073439      0.000000      0.076736
      2.75005      5.50010      3.47664        -0.008892      0.000000     -0.000487
      2.75005      5.50010      6.95327        -0.103438      0.000000     -0.085456
      5.50010      0.00000      0.00000         0.000000      0.003254     -0.023363
      5.50010      0.00000      3.47664         0.000000      0.005366      0.062745
      5.50010      0.00000      6.95327         0.000000     -0.022150     -0.046527
      5.50010      2.75005      0.00000         0.000000     -0.003254     -0.023363
      5.50010      2.75005      3.47664         0.000000     -0.005366      0.062745
      5.50010      2.75005      6.95327         0.000000      0.022150     -0.046527
      5.50010      5.50010      0.00000         0.000000      0.000000     -0.018580
      5.50010      5.50010      3.47664         0.000000      0.000000      0.035345
      5.50010      5.50010      6.95327         0.000000      0.000000      0.012289
      1.37502      1.37502      1.73832         0.000000      0.000000      0.033271
      1.37502      1.37502      5.21496         0.000000      0.000000     -0.036807
      1.37502      1.37502      8.69159         0.000000      0.000000     -0.090324
      1.37502      4.12507      1.73832         0.000000      0.156974     -0.032083
      1.37502      4.12507      5.21496         0.000000      0.039571     -0.050375
      1.37502      4.12507      8.69159         0.000000      0.014176      0.009746
      1.37502      6.87512      1.73832         0.000000     -0.156974     -0.032083
      1.37502      6.87512      5.21496         0.000000     -0.039571     -0.050375
      1.37502      6.87512      8.69159         0.000000     -0.014176      0.009746
      4.12507      1.37502      1.73832         0.147360      0.000000      0.072576
      4.12507      1.37502      5.21496         0.030907      0.000000      0.021706
      4.12507      1.37502      8.69159         0.165773      0.000000     -0.097780
      4.12507      4.12507      1.73832         0.008014      0.007046      0.103194
      4.12507      4.12507      5.21496         0.000118     -0.005190     -0.013885
      4.12507      4.12507      8.69159         0.203227      0.012433     -0.024567
      4.12507      6.87512      1.73832         0.008014     -0.007046      0.103194
      4.12507      6.87512      5.21496         0.000118      0.005190     -0.013885
      4.12507      6.87512      8.69159         0.203227     -0.012433     -0.024567
      6.87512      1.37502      1.73832        -0.147360      0.000000      0.072576
      6.87512      1.37502      5.21496        -0.030907      0.000000      0.021706
      6.87512      1.37502      8.69159        -0.165773      0.000000     -0.097780
      6.87512      4.12507      1.73832        -0.008014      0.007046      0.103194
      6.87512      4.12507      5.21496        -0.000118     -0.005190     -0.013885
      6.87512      4.12507      8.69159        -0.203227      0.012433     -0.024567
      6.87512      6.87512      1.73832        -0.008014     -0.007046      0.103194
      6.87512      6.87512      5.21496        -0.000118      0.005190     -0.013885
      6.87512      6.87512      8.69159        -0.203227     -0.012433     -0.024567
 -----------------------------------------------------------------------------------
    total drift:                               -0.000000     -0.000000      0.000035


--------------------------------------------------------------------------------------------------------



  FREE ENERGIE OF THE ION-ELECTRON SYSTEM (eV)
  ---------------------------------------------------
  free  energy   TOTEN  =      -355.90924103 eV

  energy  without entropy=     -355.89002209  energy(sigma->0) =     -355.90283472
 


--------------------------------------------------------------------------------------------------------


    POTLOK:  cpu time    0.9023: real time    0.9025


--------------------------------------------------------------------------------------------------------


     LOOP+:  cpu time 2404.0943: real time 2456.9252
    4ORBIT:  cpu time    0.0000: real time    0.0000
 


 total charge     
 
# of ion       s       p       d       tot
------------------------------------------
    1        0.405   0.429   0.000   0.834
    2        0.405   0.428   0.000   0.833
    3        0.405   0.428   0.000   0.833
    4        0.405   0.429   0.000   0.834
    5        0.406   0.428   0.000   0.833
    6        0.405   0.428   0.000   0.833
    7        0.405   0.428   0.000   0.833
    8        0.405   0.426   0.000   0.832
    9        0.405   0.429   0.000   0.833
   10        0.405   0.430   0.000   0.834
   11        0.406   0.427   0.000   0.833
   12        0.406   0.428   0.000   0.833
   13        0.405   0.429   0.000   0.834
   14        0.406   0.427   0.000   0.833
   15        0.405   0.428   0.000   0.834
   16        0.405   0.429   0.000   0.833
   17        0.405   0.426   0.000   0.831
   18        0.405   0.429   0.000   0.834
   19        0.405   0.426   0.000   0.831
   20        0.405   0.427   0.000   0.832
   21        0.405   0.426   0.000   0.831
   22        0.404   0.426   0.000   0.830
   23        0.405   0.427   0.000   0.832
   24        0.405   0.426   0.000   0.831
   25        0.404   0.427   0.000   0.830
   26        0.405   0.427   0.000   0.832
   27        0.405   0.426   0.000   0.831
   28        0.335   0.353   5.136   5.824
   29        0.335   0.346   5.143   5.825
   30        0.332   0.355   5.134   5.821
   31        0.334   0.355   5.128   5.816
   32        0.335   0.351   5.135   5.821
   33        0.330   0.354   5.136   5.821
   34        0.334   0.355   5.129   5.818
   35        0.335   0.351   5.133   5.819
   36        0.330   0.354   5.142   5.827
   37        0.335   0.355   5.120   5.810
   38        0.333   0.351   5.132   5.816
   39        0.333   0.352   5.143   5.827
   40        0.333   0.352   5.133   5.819
   41        0.334   0.350   5.130   5.814
   42        0.334   0.353   5.137   5.823
   43        0.333   0.352   5.128   5.813
   44        0.334   0.350   5.130   5.814
   45        0.334   0.353   5.134   5.821
   46        0.335   0.354   5.134   5.823
   47        0.333   0.351   5.139   5.823
   48        0.333   0.353   5.130   5.815
   49        0.333   0.351   5.143   5.827
   50        0.334   0.350   5.146   5.830
   51        0.334   0.353   5.128   5.815
   52        0.333   0.351   5.147   5.831
   53        0.334   0.349   5.146   5.829
   54        0.334   0.353   5.129   5.816
--------------------------------------------------
tot         19.941  21.048 138.647 179.635
 


 magnetization (x)
 
# of ion       s       p       d       tot
------------------------------------------
    1        0.007   0.012   0.000   0.019
    2       -0.004  -0.009   0.000  -0.013
    3       -0.010  -0.021   0.000  -0.031
    4        0.007   0.012   0.000   0.020
    5       -0.004  -0.009   0.000  -0.013
    6       -0.010  -0.021   0.000  -0.030
    7        0.011   0.019   0.000   0.029
    8       -0.001  -0.003   0.000  -0.003
    9       -0.010  -0.018   0.000  -0.028
   10        0.007   0.012   0.000   0.019
   11       -0.004  -0.009   0.000  -0.013
   12       -0.010  -0.020   0.000  -0.029
   13        0.007   0.012   0.000   0.019
   14       -0.004  -0.010   0.000  -0.014
   15       -0.010  -0.020   0.000  -0.029
   16        0.011   0.018   0.000   0.028
   17       -0.001  -0.003   0.000  -0.003
   18       -0.010  -0.017   0.000  -0.027
   19        0.020   0.035   0.000   0.055
   20       -0.001  -0.001   0.000  -0.002
   21       -0.001  -0.002   0.000  -0.003
   22        0.021   0.035   0.000   0.055
   23       -0.001  -0.001   0.000  -0.002
   24       -0.001  -0.002   0.000  -0.003
   25        0.022   0.036   0.000   0.058
   26        0.001   0.000   0.000   0.001
   27       -0.001  -0.003   0.000  -0.004
   28        0.030   0.025   2.116   2.170
   29        0.020   0.013   2.335   2.369
   30        0.019   0.010   2.262   2.290
   31       -0.021  -0.024  -2.355  -2.400
   32        0.016   0.022   2.322   2.360
   33        0.015   0.014   2.176   2.205
   34       -0.021  -0.024  -2.353  -2.398
   35        0.017   0.023   2.327   2.366
   36        0.014   0.014   2.173   2.202
   37       -0.024  -0.027  -2.432  -2.483
   38        0.013   0.020   2.266   2.299
   39       -0.018  -0.011  -2.388  -2.417
   40       -0.013  -0.015  -2.345  -2.374
   41        0.016   0.015   2.288   2.319
   42       -0.016  -0.016  -2.387  -2.419
   43       -0.014  -0.015  -2.342  -2.371
   44        0.015   0.015   2.285   2.316
   45       -0.016  -0.016  -2.395  -2.426
   46       -0.024  -0.027  -2.411  -2.462
   47        0.013   0.020   2.257   2.290
   48       -0.018  -0.011  -2.403  -2.431
   49       -0.014  -0.015  -2.324  -2.352
   50        0.015   0.015   2.266   2.296
   51       -0.016  -0.016  -2.397  -2.428
   52       -0.013  -0.015  -2.323  -2.352
   53        0.015   0.015   2.268   2.298
   54       -0.016  -0.016  -2.397  -2.429
--------------------------------------------------
tot          0.009  -0.005  -3.910  -3.906
 

 total amount of memory used by VASP MPI-rank0   842526. kBytes
=======================================================================

   base      :      30000. kBytes
   nonl-proj :      28494. kBytes
   fftplans  :      31580. kBytes
   grid      :      21385. kBytes
   one-center:        435. kBytes
   wavefun   :     730632. kBytes
 
  
  
 General timing and accounting informations for this job:
 ========================================================
  
                  Total CPU time used (sec):     2434.973
                            User time (sec):     2404.227
                          System time (sec):       30.746
                         Elapsed time (sec):     2489.981
  
                   Maximum memory used (kb):     1007572.
                   Average memory used (kb):           0.
  
                          Minor page faults:       828296
                          Major page faults:           18
                 Voluntary context switches:         3524
