 vasp.5.4.4.18Apr17-6-g9f103f2a35 (build Dec 20 2018 12:05:58) complex          
  
 executed on             LinuxIFC date 2019.06.21  00:26:11
 running on   32 total cores
 distrk:  each k-point on    8 cores,    4 groups
 distr:  one band on NCORES_PER_BAND=   4 cores,    2 groups


--------------------------------------------------------------------------------------------------------


 INCAR:
 POTCAR:    PAW_PBE Al 04Jan2001                  
 POTCAR:    PAW_PBE Mn 06Sep2000                  

 ----------------------------------------------------------------------------- 
|                                                                             |
|           W    W    AA    RRRRR   N    N  II  N    N   GGGG   !!!           |
|           W    W   A  A   R    R  NN   N  II  NN   N  G    G  !!!           |
|           W    W  A    A  R    R  N N  N  II  N N  N  G       !!!           |
|           W WW W  AAAAAA  RRRRR   N  N N  II  N  N N  G  GGG   !            |
|           WW  WW  A    A  R   R   N   NN  II  N   NN  G    G                |
|           W    W  A    A  R    R  N    N  II  N    N   GGGG   !!!           |
|                                                                             |
|      You have enabled k-point parallelism (KPAR>1).                         |
|      This developmental code was originally  written by Paul Kent at ORNL,  |
|      and carefully double checked in Vienna.                                |
|      GW as well as linear response parallelism added by Martijn Marsman     |
|      and Georg Kresse.                                                      |
|      Carefully verify results versus KPAR=1.                                |
|      Report problems to Paul Kent and Vienna.                               |
|                                                                             |
 ----------------------------------------------------------------------------- 

 POTCAR:    PAW_PBE Al 04Jan2001                  
   VRHFIN =Al: s2p1                                                             
   LEXCH  = PE                                                                  
   EATOM  =    53.5387 eV,    3.9350 Ry                                         
                                                                                
   TITEL  = PAW_PBE Al 04Jan2001                                                
   LULTRA =        F    use ultrasoft PP ?                                      
   IUNSCR =        1    unscreen: 0-lin 1-nonlin 2-no                           
   RPACOR =    1.500    partial core radius                                     
   POMASS =   26.981; ZVAL   =    3.000    mass and valenz                      
   RCORE  =    1.900    outmost cutoff radius                                   
   RWIGS  =    2.650; RWIGS  =    1.402    wigner-seitz radius (au A)           
   ENMAX  =  240.300; ENMIN  =  180.225 eV                                      
   ICORE  =        2    local potential                                         
   LCOR   =        T    correct aug charges                                     
   LPAW   =        T    paw PP                                                  
   EAUG   =  291.052                                                            
   DEXC   =    0.000                                                            
   RMAX   =    1.939    core radius for proj-oper                               
   RAUG   =    1.300    factor for augmentation sphere                          
   RDEP   =    1.966    radius for radial grids                                 
   RDEPT  =    1.856    core radius for aug-charge                              
                                                                                
   Atomic configuration                                                         
    6 entries                                                                   
     n  l   j            E        occ.                                          
     1  0  0.50     -1511.1048   2.0000                                         
     2  0  0.50      -108.1629   2.0000                                         
     2  1  1.50       -69.6402   6.0000                                         
     3  0  0.50        -7.7528   2.0000                                         
     3  1  1.50        -2.7121   1.0000                                         
     3  2  2.50        -2.7212   0.0000                                         
   Description                                                                  
     l       E           TYP  RCUT    TYP  RCUT                                 
     0     -7.7528455     23  1.900                                             
     0     -3.3096929     23  1.900                                             
     1     -2.7120682     23  1.900                                             
     1     13.6058260     23  1.900                                             
     2     -2.7211652      7  1.900                                             
  local pseudopotential read in
  partial core-charges read in
  partial kinetic energy density read in
  atomic valenz-charges read in
  non local Contribution for L=           0  read in
    real space projection operators read in
  non local Contribution for L=           0  read in
    real space projection operators read in
  non local Contribution for L=           1  read in
    real space projection operators read in
  non local Contribution for L=           1  read in
    real space projection operators read in
    PAW grid and wavefunctions read in
 
   number of l-projection  operators is LMAX  =           4
   number of lm-projection operators is LMMAX =           8
 
 POTCAR:    PAW_PBE Mn 06Sep2000                  
   VRHFIN =Mn: d6 s1                                                            
   LEXCH  = PE                                                                  
   EATOM  =   416.7541 eV,   30.6306 Ry                                         
                                                                                
   TITEL  = PAW_PBE Mn 06Sep2000                                                
   LULTRA =        F    use ultrasoft PP ?                                      
   IUNSCR =        1    unscreen: 0-lin 1-nonlin 2-no                           
   RPACOR =    2.000    partial core radius                                     
   POMASS =   54.938; ZVAL   =    7.000    mass and valenz                      
   RCORE  =    2.300    outmost cutoff radius                                   
   RWIGS  =    2.500; RWIGS  =    1.323    wigner-seitz radius (au A)           
   ENMAX  =  269.864; ENMIN  =  202.398 eV                                      
   RCLOC  =    1.725    cutoff for local pot                                    
   LCOR   =        T    correct aug charges                                     
   LPAW   =        T    paw PP                                                  
   EAUG   =  500.711                                                            
   DEXC   =    0.000                                                            
   RMAX   =    2.343    core radius for proj-oper                               
   RAUG   =    1.300    factor for augmentation sphere                          
   RDEP   =    2.338    radius for radial grids                                 
   RDEPT  =    1.911    core radius for aug-charge                              
                                                                                
   Atomic configuration                                                         
    9 entries                                                                   
     n  l   j            E        occ.                                          
     1  0  0.50     -6424.8288   2.0000                                         
     2  0  0.50      -739.1154   2.0000                                         
     2  1  1.50      -625.3949   6.0000                                         
     3  0  0.50       -81.6100   2.0000                                         
     3  1  1.50       -50.4667   6.0000                                         
     3  2  2.50        -3.3745   6.0000                                         
     4  0  0.50        -4.1331   1.0000                                         
     4  1  0.50        -4.0817   0.0000                                         
     4  3  2.50        -1.3606   0.0000                                         
   Description                                                                  
     l       E           TYP  RCUT    TYP  RCUT                                 
     2     -3.3744664     23  2.300                                             
     2     -4.7350490     23  2.300                                             
     0     -4.1331408     23  2.300                                             
     0      7.6656614     23  2.300                                             
     1     -2.7211652     23  2.300                                             
     1     20.4087390     23  2.300                                             
  local pseudopotential read in
  partial core-charges read in
  partial kinetic energy density read in
  atomic valenz-charges read in
  non local Contribution for L=           2  read in
    real space projection operators read in
  non local Contribution for L=           2  read in
    real space projection operators read in
  non local Contribution for L=           0  read in
    real space projection operators read in
  non local Contribution for L=           0  read in
    real space projection operators read in
  non local Contribution for L=           1  read in
    real space projection operators read in
  non local Contribution for L=           1  read in
    real space projection operators read in
    PAW grid and wavefunctions read in
 
   number of l-projection  operators is LMAX  =           6
   number of lm-projection operators is LMMAX =          18
 

 ----------------------------------------------------------------------------- 
|                                                                             |
|  ADVICE TO THIS USER RUNNING 'VASP/VAMP'   (HEAR YOUR MASTER'S VOICE ...):  |
|                                                                             |
|      You have a (more or less) 'large supercell' and for larger cells       |
|      it might be more efficient to use real space projection opertators     |
|      So try LREAL= Auto  in the INCAR   file.                               |
|      Mind:          For very  accurate calculation you might also keep the  |
|      reciprocal projection scheme          (i.e. LREAL=.FALSE.)             |
|                                                                             |
 ----------------------------------------------------------------------------- 

  PAW_PBE Al 04Jan2001                  :
 energy of atom  1       EATOM=  -53.5387
 kinetic energy error for atom=    0.0005 (will be added to EATOM!!)
  PAW_PBE Mn 06Sep2000                  :
 energy of atom  2       EATOM= -416.7541
 kinetic energy error for atom=    0.0080 (will be added to EATOM!!)
 
 
 POSCAR: NewRef: 27, @ ['Mn', array([1.37502469, 
  positions in cartesian coordinates
  velocities in cartesian coordinates
  No initial velocities read in
 exchange correlation table for  LEXCH =        8
   RHO(1)=    0.500       N(1)  =     2000
   RHO(2)=  100.500       N(2)  =     4000
 


--------------------------------------------------------------------------------------------------------


 ion  position               nearest neighbor table
   1  0.000  0.000  0.000-  28 2.61  30 2.61  34 2.61  36 2.61  46 2.61  48 2.61  52 2.61  54 2.61
                             4 2.75  10 2.75   7 2.75  19 2.75
   2  0.000  0.000  0.333-  28 2.61  34 2.61  46 2.61  52 2.61  29 2.61  47 2.61  35 2.61  53 2.61
                             5 2.75  11 2.75   8 2.75  20 2.75
   3  0.000  0.000  0.667-  29 2.61  35 2.61  47 2.61  53 2.61  30 2.61  48 2.61  36 2.61  54 2.61
                             6 2.75  12 2.75   9 2.75  21 2.75
   4  0.000  0.333  0.000-  28 2.61  30 2.61  46 2.61  48 2.61  31 2.61  33 2.61  49 2.61  51 2.61
                            13 2.75   1 2.75   7 2.75  22 2.75
   5  0.000  0.333  0.333-  28 2.61  46 2.61  31 2.61  49 2.61  47 2.61  29 2.61  32 2.61  50 2.61
                            14 2.75   2 2.75   8 2.75  23 2.75
   6  0.000  0.333  0.667-  29 2.61  47 2.61  32 2.61  50 2.61  48 2.61  30 2.61  33 2.61  51 2.61
                            15 2.75   3 2.75   9 2.75  24 2.75
   7  0.000  0.667  0.000-  31 2.61  33 2.61  49 2.61  51 2.61  34 2.61  36 2.61  52 2.61  54 2.61
                             4 2.75  16 2.75   1 2.75  25 2.75
   8  0.000  0.667  0.333-  31 2.61  49 2.61  34 2.61  52 2.61  50 2.61  32 2.61  35 2.61  53 2.61
                             5 2.75  17 2.75   2 2.75  26 2.75
   9  0.000  0.667  0.667-  32 2.61  50 2.61  35 2.61  53 2.61  51 2.61  33 2.61  36 2.61  54 2.61
                             6 2.75  18 2.75   3 2.75  27 2.75
  10  0.333  0.000  0.000-  28 2.61  30 2.61  34 2.61  36 2.61  37 2.61  39 2.61  43 2.61  45 2.61
                            19 2.75   1 2.75  13 2.75  16 2.75
  11  0.333  0.000  0.333-  28 2.61  34 2.61  37 2.61  43 2.61  29 2.61  35 2.61  38 2.61  44 2.61
                            20 2.75   2 2.75  14 2.75  17 2.75
  12  0.333  0.000  0.667-  29 2.61  35 2.61  38 2.61  44 2.61  30 2.61  36 2.61  39 2.61  45 2.61
                            21 2.75   3 2.75  15 2.75  18 2.75
  13  0.333  0.333  0.000-  28 2.61  30 2.61  31 2.61  33 2.61  37 2.61  39 2.61  40 2.61  42 2.61
                             4 2.75  10 2.75  16 2.75  22 2.75
  14  0.333  0.333  0.333-  28 2.61  31 2.61  37 2.61  29 2.61  40 2.61  38 2.61  32 2.61  41 2.61
                             5 2.75  11 2.75  17 2.75  23 2.75
  15  0.333  0.333  0.667-  29 2.61  32 2.61  38 2.61  30 2.61  41 2.61  39 2.61  33 2.61  42 2.61
                             6 2.75  12 2.75  18 2.75  24 2.75
  16  0.333  0.667  0.000-  31 2.61  33 2.61  34 2.61  36 2.61  40 2.61  42 2.61  43 2.61  45 2.61
                            25 2.75   7 2.75  13 2.75  10 2.75
  17  0.333  0.667  0.333-  31 2.61  34 2.61  40 2.61  32 2.61  43 2.61  41 2.61  35 2.61  44 2.61
                            26 2.75   8 2.75  14 2.75  11 2.75
  18  0.333  0.667  0.667-  32 2.61  35 2.61  41 2.61  33 2.61  44 2.61  42 2.61  36 2.61  45 2.61
                            27 2.75   9 2.75  15 2.75  12 2.75
  19  0.667  0.000  0.000-  37 2.61  39 2.61  43 2.61  45 2.61  46 2.61  48 2.61  52 2.61  54 2.61
                            10 2.75  22 2.75   1 2.75  25 2.75
  20  0.667  0.000  0.333-  37 2.61  43 2.61  46 2.61  52 2.61  38 2.61  44 2.61  47 2.61  53 2.61
                            11 2.75  23 2.75   2 2.75  26 2.75
  21  0.667  0.000  0.667-  38 2.61  44 2.61  47 2.61  53 2.61  39 2.61  45 2.61  48 2.61  54 2.61
                            12 2.75  24 2.75   3 2.75  27 2.75
  22  0.667  0.333  0.000-  37 2.61  39 2.61  40 2.61  42 2.61  46 2.61  48 2.61  49 2.61  51 2.61
                            25 2.75  13 2.75  19 2.75   4 2.75
  23  0.667  0.333  0.333-  37 2.61  40 2.61  46 2.61  38 2.61  49 2.61  47 2.61  41 2.61  50 2.61
                            26 2.75  14 2.75  20 2.75   5 2.75
  24  0.667  0.333  0.667-  38 2.61  41 2.61  47 2.61  39 2.61  50 2.61  48 2.61  42 2.61  51 2.61
                            27 2.75  15 2.75  21 2.75   6 2.75
  25  0.667  0.667  0.000-  40 2.61  42 2.61  43 2.61  45 2.61  49 2.61  51 2.61  52 2.61  54 2.61
                            16 2.75  22 2.75  19 2.75   7 2.75
  26  0.667  0.667  0.333-  40 2.61  43 2.61  49 2.61  41 2.61  52 2.61  50 2.61  44 2.61  53 2.61
                            17 2.75  23 2.75  20 2.75   8 2.75
  27  0.667  0.667  0.667-  41 2.61  44 2.61  50 2.61  42 2.61  53 2.61  51 2.61  45 2.61  54 2.61
                            18 2.75  24 2.75  21 2.75   9 2.75
  28  0.167  0.167  0.167-  14 2.61  11 2.61   5 2.61  13 2.61   2 2.61  10 2.61   4 2.61   1 2.61
                            31 2.75  37 2.75  34 2.75  46 2.75
  29  0.167  0.167  0.500-  15 2.61  12 2.61   6 2.61  14 2.61   3 2.61  11 2.61   5 2.61   2 2.61
                            32 2.75  38 2.75  35 2.75  47 2.75
  30  0.167  0.167  0.833-  13 2.61  15 2.61  10 2.61  12 2.61   4 2.61   6 2.61   1 2.61   3 2.61
                            33 2.75  39 2.75  36 2.75  48 2.75
  31  0.167  0.500  0.167-  17 2.61  14 2.61   8 2.61  16 2.61   5 2.61  13 2.61   7 2.61   4 2.61
                            28 2.75  34 2.75  40 2.75  49 2.75
  32  0.167  0.500  0.500-  18 2.61  15 2.61   9 2.61  17 2.61   6 2.61  14 2.61   8 2.61   5 2.61
                            29 2.75  35 2.75  41 2.75  50 2.75
  33  0.167  0.500  0.833-  16 2.61  18 2.61  13 2.61  15 2.61   7 2.61   9 2.61   4 2.61   6 2.61
                            30 2.75  36 2.75  42 2.75  51 2.75
  34  0.167  0.833  0.167-  11 2.61  17 2.61   2 2.61   8 2.61  16 2.61  10 2.61   7 2.61   1 2.61
                            31 2.75  43 2.75  28 2.75  52 2.75
  35  0.167  0.833  0.500-  12 2.61  18 2.61   3 2.61   9 2.61  17 2.61  11 2.61   8 2.61   2 2.61
                            32 2.75  44 2.75  29 2.75  53 2.75
  36  0.167  0.833  0.833-  10 2.61  12 2.61  16 2.61  18 2.61   1 2.61   3 2.61   7 2.61   9 2.61
                            33 2.75  45 2.75  30 2.75  54 2.75
  37  0.500  0.167  0.167-  23 2.61  20 2.61  14 2.61  22 2.61  11 2.61  19 2.61  13 2.61  10 2.61
                            28 2.75  40 2.75  46 2.75  43 2.75
  38  0.500  0.167  0.500-  24 2.61  21 2.61  15 2.61  23 2.61  12 2.61  20 2.61  14 2.61  11 2.61
                            29 2.75  41 2.75  47 2.75  44 2.75
  39  0.500  0.167  0.833-  22 2.61  24 2.61  19 2.61  21 2.61  13 2.61  15 2.61  10 2.61  12 2.61
                            30 2.75  42 2.75  48 2.75  45 2.75
  40  0.500  0.500  0.167-  26 2.61  23 2.61  17 2.61  25 2.61  14 2.61  22 2.61  16 2.61  13 2.61
                            31 2.75  37 2.75  43 2.75  49 2.75
  41  0.500  0.500  0.500-  27 2.61  24 2.61  18 2.61  26 2.61  15 2.61  23 2.61  17 2.61  14 2.61
                            32 2.75  38 2.75  44 2.75  50 2.75
  42  0.500  0.500  0.833-  25 2.61  27 2.61  22 2.61  24 2.61  16 2.61  18 2.61  13 2.61  15 2.61
                            33 2.75  39 2.75  45 2.75  51 2.75
  43  0.500  0.833  0.167-  20 2.61  26 2.61  11 2.61  17 2.61  25 2.61  19 2.61  16 2.61  10 2.61
                            34 2.75  40 2.75  52 2.75  37 2.75
  44  0.500  0.833  0.500-  21 2.61  27 2.61  12 2.61  18 2.61  26 2.61  20 2.61  17 2.61  11 2.61
                            35 2.75  41 2.75  53 2.75  38 2.75
  45  0.500  0.833  0.833-  19 2.61  21 2.61  25 2.61  27 2.61  10 2.61  12 2.61  16 2.61  18 2.61
                            36 2.75  42 2.75  54 2.75  39 2.75
  46  0.833  0.167  0.167-   5 2.61  23 2.61  20 2.61   2 2.61  22 2.61   4 2.61  19 2.61   1 2.61
                            37 2.75  49 2.75  28 2.75  52 2.75
  47  0.833  0.167  0.500-   6 2.61  24 2.61  21 2.61   3 2.61  23 2.61   5 2.61  20 2.61   2 2.61
                            38 2.75  50 2.75  29 2.75  53 2.75
  48  0.833  0.167  0.833-   4 2.61   6 2.61  22 2.61  24 2.61  19 2.61  21 2.61   1 2.61   3 2.61
                            39 2.75  51 2.75  30 2.75  54 2.75
  49  0.833  0.500  0.167-   8 2.61  26 2.61  23 2.61   5 2.61  25 2.61   7 2.61  22 2.61   4 2.61
                            40 2.75  46 2.75  52 2.75  31 2.75
  50  0.833  0.500  0.500-   9 2.61  27 2.61  24 2.61   6 2.61  26 2.61   8 2.61  23 2.61   5 2.61
                            41 2.75  47 2.75  53 2.75  32 2.75
  51  0.833  0.500  0.833-   7 2.61   9 2.61  25 2.61  27 2.61  22 2.61  24 2.61   4 2.61   6 2.61
                            42 2.75  48 2.75  54 2.75  33 2.75
  52  0.833  0.833  0.167-   2 2.61   8 2.61  20 2.61  26 2.61  19 2.61   7 2.61  25 2.61   1 2.61
                            43 2.75  49 2.75  46 2.75  34 2.75
  53  0.833  0.833  0.500-   3 2.61   9 2.61  21 2.61  27 2.61  20 2.61   8 2.61  26 2.61   2 2.61
                            44 2.75  50 2.75  47 2.75  35 2.75
  54  0.833  0.833  0.833-   1 2.61   3 2.61   7 2.61   9 2.61  19 2.61  21 2.61  25 2.61  27 2.61
                            45 2.75  51 2.75  48 2.75  36 2.75
 
  LATTYP: Found a simple tetragonal cell.
 ALAT       =     8.2501481662
 C/A-ratio  =     1.2642089792
  
  Lattice vectors:
  
 A1 = (   8.2501481662,   0.0000000000,   0.0000000000)
 A2 = (   0.0000000000,   8.2501481662,   0.0000000000)
 A3 = (   0.0000000000,   0.0000000000,  10.4299113916)


Analysis of symmetry for initial positions (statically):
=====================================================================
 Subroutine PRICEL returns following result:
 
  LATTYP: Found a simple tetragonal cell.
 ALAT       =     2.7500493888
 C/A-ratio  =     1.2642089792
  
  Lattice vectors:
  
 A1 = (   2.7500493888,   0.0000000000,   0.0000000000)
 A2 = (   0.0000000000,   2.7500493888,   0.0000000000)
 A3 = (   0.0000000000,   0.0000000000,   3.4766371306)
 
  27 primitive cells build up your supercell.
 

 Routine SETGRP: Setting up the symmetry group for a 
 simple tetragonal supercell.


 Subroutine GETGRP returns: Found 16 space group operations
 (whereof 16 operations were pure point group operations)
 out of a pool of 16 trial point group operations.


The static configuration has the point symmetry D_4h.


Analysis of symmetry for dynamics (positions and initial velocities):
=====================================================================
 Subroutine PRICEL returns following result:
 
  LATTYP: Found a simple tetragonal cell.
 ALAT       =     2.7500493888
 C/A-ratio  =     1.2642089792
  
  Lattice vectors:
  
 A1 = (   2.7500493888,   0.0000000000,   0.0000000000)
 A2 = (   0.0000000000,   2.7500493888,   0.0000000000)
 A3 = (   0.0000000000,   0.0000000000,   3.4766371306)
 
  27 primitive cells build up your supercell.
 

 Routine SETGRP: Setting up the symmetry group for a 
 simple tetragonal supercell.


 Subroutine GETGRP returns: Found 16 space group operations
 (whereof 16 operations were pure point group operations)
 out of a pool of 16 trial point group operations.


The dynamic configuration has the point symmetry D_4h.


Analysis of structural, dynamic, and magnetic symmetry:
=====================================================================
 Subroutine PRICEL returns:
 Original cell was already a primitive cell.
 

 Routine SETGRP: Setting up the symmetry group for a 
 simple tetragonal supercell.


 Subroutine GETGRP returns: Found  8 space group operations
 (whereof  2 operations were pure point group operations)
 out of a pool of 16 trial point group operations.


The magnetic configuration has the point symmetry C_1h.
 The point group associated with its full space group is C_4v.


 Subroutine INISYM returns: Found  8 space group operations
 (whereof  2 operations are pure point group operations),
 and found     1 'primitive' translations

 
 
 KPOINTS: automatic KPOINTS                       

Automatic generation of k-mesh.
 generate k-points for:    5    5    4
Space group operators:
 irot       det(A)        alpha          n_x          n_y          n_z        tau_x        tau_y        tau_z
    1     1.000000     0.000001     1.000000     0.000000     0.000000     0.000000     0.000000     0.000000
    2    -1.000000   180.000000     0.707107    -0.707107     0.000000     0.000000     0.000000     0.000000
    3     1.000000    90.000000     0.000000     0.000000    -1.000000     0.666667     0.000000     0.000000
    4     1.000000   180.000000     0.000000     0.000000     1.000000     0.666667     0.666667     0.000000
    5     1.000000    90.000000     0.000000     0.000000     1.000000     0.000000     0.666667     0.000000
    6    -1.000000   180.000000     0.000000     1.000000     0.000000     0.000000     0.666667     0.000000
    7    -1.000000   180.000000     0.707107     0.707107     0.000000     0.666667     0.666667     0.000000
    8    -1.000000   180.000000     1.000000     0.000000     0.000000     0.666667     0.000000     0.000000
 
 Subroutine IBZKPT returns following result:
 ===========================================
 
 Found     18 irreducible k-points:
 
 Following reciprocal coordinates:
            Coordinates               Weight
  0.000000  0.000000  0.000000      1.000000
  0.200000  0.000000  0.000000      4.000000
  0.400000  0.000000  0.000000      4.000000
  0.200000  0.200000  0.000000      4.000000
  0.400000  0.200000  0.000000      8.000000
  0.400000  0.400000  0.000000      4.000000
  0.000000  0.000000  0.250000      2.000000
  0.200000  0.000000  0.250000      8.000000
  0.400000  0.000000  0.250000      8.000000
  0.200000  0.200000  0.250000      8.000000
  0.400000  0.200000  0.250000     16.000000
  0.400000  0.400000  0.250000      8.000000
  0.000000  0.000000  0.500000      1.000000
  0.200000  0.000000  0.500000      4.000000
  0.400000  0.000000  0.500000      4.000000
  0.200000  0.200000  0.500000      4.000000
  0.400000  0.200000  0.500000      8.000000
  0.400000  0.400000  0.500000      4.000000
 
 Following cartesian coordinates:
            Coordinates               Weight
  0.000000  0.000000  0.000000      1.000000
  0.024242  0.000000  0.000000      4.000000
  0.048484  0.000000  0.000000      4.000000
  0.024242  0.024242  0.000000      4.000000
  0.048484  0.024242  0.000000      8.000000
  0.048484  0.048484  0.000000      4.000000
  0.000000  0.000000  0.023970      2.000000
  0.024242  0.000000  0.023970      8.000000
  0.048484  0.000000  0.023970      8.000000
  0.024242  0.024242  0.023970      8.000000
  0.048484  0.024242  0.023970     16.000000
  0.048484  0.048484  0.023970      8.000000
  0.000000  0.000000  0.047939      1.000000
  0.024242  0.000000  0.047939      4.000000
  0.048484  0.000000  0.047939      4.000000
  0.024242  0.024242  0.047939      4.000000
  0.048484  0.024242  0.047939      8.000000
  0.048484  0.048484  0.047939      4.000000
 


--------------------------------------------------------------------------------------------------------




 Dimension of arrays:
   k-points           NKPTS =     18   k-points in BZ     NKDIM =     18   number of bands    NBANDS=    162
   number of dos      NEDOS =    301   number of ions     NIONS =     54
   non local maximal  LDIM  =      6   non local SUM 2l+1 LMDIM =     18
   total plane-waves  NPLWV = 204120
   max r-space proj   IRMAX =      1   max aug-charges    IRDMAX=  89713
   dimension x,y,z NGX =    54 NGY =   54 NGZ =   70
   dimension x,y,z NGXF=   108 NGYF=  108 NGZF=  140
   support grid    NGXF=   216 NGYF=  216 NGZF=  280
   ions per type =              27  27
   NGX,Y,Z   is equivalent  to a cutoff of  10.88, 10.88, 11.16 a.u.
   NGXF,Y,Z  is equivalent  to a cutoff of  21.76, 21.76, 22.32 a.u.

 SYSTEM =  AlMn_pv                                 
 POSCAR =  NewRef: 27, @ ['Mn', array([1.37502469, 

 Startparameter for this run:
   NWRITE =      2    write-flag & timer
   PREC   = accura    normal or accurate (medium, high low for compatibility)
   ISTART =      0    job   : 0-new  1-cont  2-samecut
   ICHARG =      2    charge: 1-file 2-atom 10-const
   ISPIN  =      2    spin polarized calculation?
   LNONCOLLINEAR =      F non collinear calculations
   LSORBIT =      F    spin-orbit coupling
   INIWAV =      1    electr: 0-lowe 1-rand  2-diag
   LASPH  =      F    aspherical Exc in radial PAW
   METAGGA=      F    non-selfconsistent MetaGGA calc.

 Electronic Relaxation 1
   ENCUT  =  404.8 eV  29.75 Ry    5.45 a.u.  13.53 13.53 17.11*2*pi/ulx,y,z
   ENINI  =  404.8     initial cutoff
   ENAUG  =  500.7 eV  augmentation charge cutoff
   NELM   =    100;   NELMIN=  4; NELMDL= -8     # of ELM steps 
   EDIFF  = 0.1E-06   stopping-criterion for ELM
   LREAL  =      F    real-space projection
   NLSPLINE    = F    spline interpolate recip. space projectors
   LCOMPAT=      F    compatible to vasp.4.4
   GGA_COMPAT  = T    GGA compatible to vasp.4.4-vasp.4.6
   LMAXPAW     = -100 max onsite density
   LMAXMIX     =    2 max onsite mixed and CHGCAR
   VOSKOWN=      0    Vosko Wilk Nusair interpolation
   ROPT   =    0.00000   0.00000
 Ionic relaxation
   EDIFFG = 0.1E-05   stopping-criterion for IOM
   NSW    =      0    number of steps for IOM
   NBLOCK =      1;   KBLOCK =      1    inner block; outer block 
   IBRION =     -1    ionic relax: 0-MD 1-quasi-New 2-CG
   NFREE  =      0    steps in history (QN), initial steepest desc. (CG)
   ISIF   =      2    stress and relaxation
   IWAVPR =     10    prediction:  0-non 1-charg 2-wave 3-comb
   ISYM   =      2    0-nonsym 1-usesym 2-fastsym
   LCORR  =      T    Harris-Foulkes like correction to forces

   POTIM  = 0.2000    time-step for ionic-motion
   TEIN   =    0.0    initial temperature
   TEBEG  =    0.0;   TEEND  =   0.0 temperature during run
   SMASS  =  -3.00    Nose mass-parameter (am)
   estimated Nose-frequenzy (Omega)   =  0.10E-29 period in steps =****** mass=  -0.156E-26a.u.
   SCALEE = 1.0000    scale energy and forces
   NPACO  =    256;   APACO  = 16.0  distance and # of slots for P.C.
   PSTRESS=    0.0 pullay stress

  Mass of Ions in am
   POMASS =  26.98 54.94
  Ionic Valenz
   ZVAL   =   3.00  7.00
  Atomic Wigner-Seitz radii
   RWIGS  =  -1.00 -1.00
  virtual crystal weights 
   VCA    =   1.00  1.00
   NELECT =     270.0000    total number of electrons
   NUPDOWN=      -1.0000    fix difference up-down

 DOS related values:
   EMIN   =  10.00;   EMAX   =-10.00  energy-range for DOS
   EFERMI =   0.00
   ISMEAR =     1;   SIGMA  =   0.20  broadening in eV -4-tet -1-fermi 0-gaus

 Electronic relaxation 2 (details)
   IALGO  =     58    algorithm
   LDIAG  =      T    sub-space diagonalisation (order eigenvalues)
   LSUBROT=      F    optimize rotation matrix (better conditioning)
   TURBO    =      0    0=normal 1=particle mesh
   IRESTART =      0    0=no restart 2=restart with 2 vectors
   NREBOOT  =      0    no. of reboots
   NMIN     =      0    reboot dimension
   EREF     =   0.00    reference energy to select bands
   IMIX   =      4    mixing-type and parameters
     AMIX     =   0.40;   BMIX     =  1.00
     AMIX_MAG =   1.60;   BMIX_MAG =  1.00
     AMIN     =   0.10
     WC   =   100.;   INIMIX=   1;  MIXPRE=   1;  MAXMIX= -45

 Intra band minimization:
   WEIMIN = 0.0000     energy-eigenvalue tresh-hold
   EBREAK =  0.15E-09  absolut break condition
   DEPER  =   0.30     relativ break condition  

   TIME   =   0.40     timestep for ELM

  volume/ion in A,a.u.               =      13.15        88.72
  Fermi-wavevector in a.u.,A,eV,Ry     =   1.186118  2.241439 19.141722  1.406877
  Thomas-Fermi vector in A             =   2.322298
 
 Write flags
   LWAVE        =      F    write WAVECAR
   LDOWNSAMPLE  =      F    k-point downsampling of WAVECAR
   LCHARG       =      F    write CHGCAR
   LVTOT        =      F    write LOCPOT, total local potential
   LVHAR        =      F    write LOCPOT, Hartree potential only
   LELF         =      F    write electronic localiz. function (ELF)
   LORBIT       =     10    0 simple, 1 ext, 2 COOP (PROOUT), +10 PAW based schemes


 Dipole corrections
   LMONO  =      F    monopole corrections only (constant potential shift)
   LDIPOL =      F    correct potential (dipole corrections)
   IDIPOL =      0    1-x, 2-y, 3-z, 4-all directions 
   EPSILON=  1.0000000 bulk dielectric constant

 Exchange correlation treatment:
   GGA     =    --    GGA type
   LEXCH   =     8    internal setting for exchange type
   VOSKOWN=      0    Vosko Wilk Nusair interpolation
   LHFCALC =     F    Hartree Fock is set to
   LHFONE  =     F    Hartree Fock one center treatment
   AEXX    =    0.0000 exact exchange contribution

 Linear response parameters
   LEPSILON=     F    determine dielectric tensor
   LRPA    =     F    only Hartree local field effects (RPA)
   LNABLA  =     F    use nabla operator in PAW spheres
   LVEL    =     F    velocity operator in full k-point grid
   LINTERFAST=   F  fast interpolation
   KINTER  =     0    interpolate to denser k-point grid
   CSHIFT  =0.1000    complex shift for real part using Kramers Kronig
   OMEGAMAX=  -1.0    maximum frequency
   DEG_THRESHOLD= 0.2000000E-02 threshold for treating states as degnerate
   RTIME   =   -0.100 relaxation time in fs
  (WPLASMAI=    0.000 imaginary part of plasma frequency in eV, 0.658/RTIME)
   DFIELD  = 0.0000000 0.0000000 0.0000000 field for delta impulse in time
 
 Orbital magnetization related:
   ORBITALMAG=     F  switch on orbital magnetization
   LCHIMAG   =     F  perturbation theory with respect to B field
   DQ        =  0.001000  dq finite difference perturbation B field
   LLRAUG    =     F  two centre corrections for induced B field



--------------------------------------------------------------------------------------------------------


 Static calculation
 charge density and potential will be updated during run
 spin polarized calculation
 Conjugate gradient for all bands (Freysoldt, et al. PRB 79, 241103 (2009))
 preconditioned conjugated gradient                                        
 perform sub-space diagonalisation
    before iterative eigenvector-optimisation
 modified Broyden-mixing scheme, WC =      100.0
 initial mixing is a Kerker type mixing with AMIX =  0.4000 and BMIX =      1.0000
 Hartree-type preconditioning will be used
 using additional bands           27
 reciprocal scheme for non local part
 use partial core corrections
 no Harris-corrections to forces 
 use gradient corrections 
 use of overlap-Matrix (Vanderbilt PP)
 Methfessel and Paxton  Order N= 1 SIGMA  =   0.20


--------------------------------------------------------------------------------------------------------


  energy-cutoff  :      404.80
  volume of cell :      709.91
      direct lattice vectors                 reciprocal lattice vectors
     8.250148166  0.000000000  0.000000000     0.121209944  0.000000000  0.000000000
     0.000000000  8.250148166  0.000000000     0.000000000  0.121209944  0.000000000
     0.000000000  0.000000000 10.429911392     0.000000000  0.000000000  0.095878092

  length of vectors
     8.250148166  8.250148166 10.429911392     0.121209944  0.121209944  0.095878092


 
 k-points in units of 2pi/SCALE and weight: automatic KPOINTS                       
   0.00000000  0.00000000  0.00000000       0.010
   0.02424199  0.00000000  0.00000000       0.040
   0.04848398  0.00000000  0.00000000       0.040
   0.02424199  0.02424199  0.00000000       0.040
   0.04848398  0.02424199  0.00000000       0.080
   0.04848398  0.04848398  0.00000000       0.040
   0.00000000  0.00000000  0.02396952       0.020
   0.02424199  0.00000000  0.02396952       0.080
   0.04848398  0.00000000  0.02396952       0.080
   0.02424199  0.02424199  0.02396952       0.080
   0.04848398  0.02424199  0.02396952       0.160
   0.04848398  0.04848398  0.02396952       0.080
   0.00000000  0.00000000  0.04793905       0.010
   0.02424199  0.00000000  0.04793905       0.040
   0.04848398  0.00000000  0.04793905       0.040
   0.02424199  0.02424199  0.04793905       0.040
   0.04848398  0.02424199  0.04793905       0.080
   0.04848398  0.04848398  0.04793905       0.040
 
 k-points in reciprocal lattice and weights: automatic KPOINTS                       
   0.00000000  0.00000000  0.00000000       0.010
   0.20000000  0.00000000  0.00000000       0.040
   0.40000000  0.00000000  0.00000000       0.040
   0.20000000  0.20000000  0.00000000       0.040
   0.40000000  0.20000000  0.00000000       0.080
   0.40000000  0.40000000  0.00000000       0.040
   0.00000000  0.00000000  0.25000000       0.020
   0.20000000  0.00000000  0.25000000       0.080
   0.40000000  0.00000000  0.25000000       0.080
   0.20000000  0.20000000  0.25000000       0.080
   0.40000000  0.20000000  0.25000000       0.160
   0.40000000  0.40000000  0.25000000       0.080
   0.00000000  0.00000000  0.50000000       0.010
   0.20000000  0.00000000  0.50000000       0.040
   0.40000000  0.00000000  0.50000000       0.040
   0.20000000  0.20000000  0.50000000       0.040
   0.40000000  0.20000000  0.50000000       0.080
   0.40000000  0.40000000  0.50000000       0.040
 
 position of ions in fractional coordinates (direct lattice) 
   0.00000000  0.00000000  0.00000000
   0.00000000  0.00000000  0.33333333
   0.00000000  0.00000000  0.66666667
   0.00000000  0.33333333  0.00000000
   0.00000000  0.33333333  0.33333333
   0.00000000  0.33333333  0.66666667
   0.00000000  0.66666667  0.00000000
   0.00000000  0.66666667  0.33333333
   0.00000000  0.66666667  0.66666667
   0.33333333  0.00000000  0.00000000
   0.33333333  0.00000000  0.33333333
   0.33333333  0.00000000  0.66666667
   0.33333333  0.33333333  0.00000000
   0.33333333  0.33333333  0.33333333
   0.33333333  0.33333333  0.66666667
   0.33333333  0.66666667  0.00000000
   0.33333333  0.66666667  0.33333333
   0.33333333  0.66666667  0.66666667
   0.66666667  0.00000000  0.00000000
   0.66666667  0.00000000  0.33333333
   0.66666667  0.00000000  0.66666667
   0.66666667  0.33333333  0.00000000
   0.66666667  0.33333333  0.33333333
   0.66666667  0.33333333  0.66666667
   0.66666667  0.66666667  0.00000000
   0.66666667  0.66666667  0.33333333
   0.66666667  0.66666667  0.66666667
   0.16666667  0.16666667  0.16666667
   0.16666667  0.16666667  0.50000000
   0.16666667  0.16666667  0.83333333
   0.16666667  0.50000000  0.16666667
   0.16666667  0.50000000  0.50000000
   0.16666667  0.50000000  0.83333333
   0.16666667  0.83333333  0.16666667
   0.16666667  0.83333333  0.50000000
   0.16666667  0.83333333  0.83333333
   0.50000000  0.16666667  0.16666667
   0.50000000  0.16666667  0.50000000
   0.50000000  0.16666667  0.83333333
   0.50000000  0.50000000  0.16666667
   0.50000000  0.50000000  0.50000000
   0.50000000  0.50000000  0.83333333
   0.50000000  0.83333333  0.16666667
   0.50000000  0.83333333  0.50000000
   0.50000000  0.83333333  0.83333333
   0.83333333  0.16666667  0.16666667
   0.83333333  0.16666667  0.50000000
   0.83333333  0.16666667  0.83333333
   0.83333333  0.50000000  0.16666667
   0.83333333  0.50000000  0.50000000
   0.83333333  0.50000000  0.83333333
   0.83333333  0.83333333  0.16666667
   0.83333333  0.83333333  0.50000000
   0.83333333  0.83333333  0.83333333
 
 position of ions in cartesian coordinates  (Angst):
   0.00000000  0.00000000  0.00000000
   0.00000000  0.00000000  3.47663713
   0.00000000  0.00000000  6.95327426
   0.00000000  2.75004939  0.00000000
   0.00000000  2.75004939  3.47663713
   0.00000000  2.75004939  6.95327426
   0.00000000  5.50009878  0.00000000
   0.00000000  5.50009878  3.47663713
   0.00000000  5.50009878  6.95327426
   2.75004939  0.00000000  0.00000000
   2.75004939  0.00000000  3.47663713
   2.75004939  0.00000000  6.95327426
   2.75004939  2.75004939  0.00000000
   2.75004939  2.75004939  3.47663713
   2.75004939  2.75004939  6.95327426
   2.75004939  5.50009878  0.00000000
   2.75004939  5.50009878  3.47663713
   2.75004939  5.50009878  6.95327426
   5.50009878  0.00000000  0.00000000
   5.50009878  0.00000000  3.47663713
   5.50009878  0.00000000  6.95327426
   5.50009878  2.75004939  0.00000000
   5.50009878  2.75004939  3.47663713
   5.50009878  2.75004939  6.95327426
   5.50009878  5.50009878  0.00000000
   5.50009878  5.50009878  3.47663713
   5.50009878  5.50009878  6.95327426
   1.37502469  1.37502469  1.73831857
   1.37502469  1.37502469  5.21495570
   1.37502469  1.37502469  8.69159283
   1.37502469  4.12507408  1.73831857
   1.37502469  4.12507408  5.21495570
   1.37502469  4.12507408  8.69159283
   1.37502469  6.87512347  1.73831857
   1.37502469  6.87512347  5.21495570
   1.37502469  6.87512347  8.69159283
   4.12507408  1.37502469  1.73831857
   4.12507408  1.37502469  5.21495570
   4.12507408  1.37502469  8.69159283
   4.12507408  4.12507408  1.73831857
   4.12507408  4.12507408  5.21495570
   4.12507408  4.12507408  8.69159283
   4.12507408  6.87512347  1.73831857
   4.12507408  6.87512347  5.21495570
   4.12507408  6.87512347  8.69159283
   6.87512347  1.37502469  1.73831857
   6.87512347  1.37502469  5.21495570
   6.87512347  1.37502469  8.69159283
   6.87512347  4.12507408  1.73831857
   6.87512347  4.12507408  5.21495570
   6.87512347  4.12507408  8.69159283
   6.87512347  6.87512347  1.73831857
   6.87512347  6.87512347  5.21495570
   6.87512347  6.87512347  8.69159283
 


--------------------------------------------------------------------------------------------------------


 k-point  1 :   0.0000 0.0000 0.0000  plane waves:   13099
 k-point  2 :   0.2000 0.0000 0.0000  plane waves:   13101
 k-point  3 :   0.4000 0.0000 0.0000  plane waves:   13111
 k-point  4 :   0.2000 0.2000 0.0000  plane waves:   13137
 k-point  5 :   0.4000 0.2000 0.0000  plane waves:   13119
 k-point  6 :   0.4000 0.4000 0.0000  plane waves:   13129
 k-point  7 :   0.0000 0.0000 0.2500  plane waves:   13134
 k-point  8 :   0.2000 0.0000 0.2500  plane waves:   13149
 k-point  9 :   0.4000 0.0000 0.2500  plane waves:   13119
 k-point 10 :   0.2000 0.2000 0.2500  plane waves:   13145
 k-point 11 :   0.4000 0.2000 0.2500  plane waves:   13134
 k-point 12 :   0.4000 0.4000 0.2500  plane waves:   13108
 k-point 13 :   0.0000 0.0000 0.5000  plane waves:   13186
 k-point 14 :   0.2000 0.0000 0.5000  plane waves:   13124
 k-point 15 :   0.4000 0.0000 0.5000  plane waves:   13152
 k-point 16 :   0.2000 0.2000 0.5000  plane waves:   13136
 k-point 17 :   0.4000 0.2000 0.5000  plane waves:   13128
 k-point 18 :   0.4000 0.4000 0.5000  plane waves:   13112

 maximum and minimum number of plane-waves per node :      3304     3246

 maximum number of plane-waves:     13186
 maximum index in each direction: 
   IXMAX=   13   IYMAX=   13   IZMAX=   17
   IXMIN=  -13   IYMIN=  -13   IZMIN=  -17


 parallel 3D FFT for wavefunctions:
    minimum data exchange during FFTs selected (reduces bandwidth)
 parallel 3D FFT for charge:
    minimum data exchange during FFTs selected (reduces bandwidth)


 total amount of memory used by VASP MPI-rank0   590432. kBytes
=======================================================================

   base      :      30000. kBytes
   nonl-proj :      19946. kBytes
   fftplans  :      31580. kBytes
   grid      :      21385. kBytes
   one-center:        435. kBytes
   wavefun   :     487086. kBytes
 
     INWAV:  cpu time    0.0001: real time    0.0001
 Broyden mixing: mesh for mixing (old mesh)
   NGX = 27   NGY = 27   NGZ = 35
  (NGX  =108   NGY  =108   NGZ  =140)
  gives a total of  25515 points

 initial charge density was supplied:
 charge density of overlapping atoms calculated
 number of electron     270.0000000 magnetization      -3.0000000
 keeping initial charge density in first step


--------------------------------------------------------------------------------------------------------


 Maximum index for augmentation-charges        10967 (set IRDMAX)


--------------------------------------------------------------------------------------------------------


 First call to EWALD:  gamma=   0.199
 Maximum number of real-space cells 3x 3x 2
 Maximum number of reciprocal cells 3x 3x 3

    FEWALD:  cpu time    0.0024: real time    0.0024


--------------------------------------- Iteration      1(   1)  ---------------------------------------


    POTLOK:  cpu time    0.4204: real time    0.4208
    SETDIJ:  cpu time    0.4739: real time    0.4741
    TRIAL :  cpu time   20.2898: real time   20.3804
    CORREC:  cpu time    0.0036: real time    0.0037
    --------------------------------------------
      LOOP:  cpu time   21.3440: real time   21.4552

 eigenvalue-minimisations  : 11664
 total energy-change (2. order) : 0.2066776E+04  (-0.8686949E+04)
 number of electron     270.0000000 magnetization      -3.0000000
 augmentation part      270.0000000 magnetization      -3.0000000

 Free energy of the ion-electron system (eV)
  ---------------------------------------------------
  alpha Z        PSCENC =       798.38614055
  Ewald energy   TEWEN  =    -12901.57693327
  -Hartree energ DENC   =     -2855.60785864
  -exchange      EXHF   =         0.00000000
  -V(xc)+E(xc)   XCENC  =      -996.16173865
  PAW double counting   =     12741.82587617   -11476.22345381
  entropy T*S    EENTRO =        -0.00565072
  eigenvalues    EBANDS =      4058.46565839
  atomic energy  EATOM  =     12697.67401269
  ---------------------------------------------------
  free energy    TOTEN  =      2066.77605270 eV

  energy without entropy =     2066.78170342  energy(sigma->0) =     2066.77793627


--------------------------------------------------------------------------------------------------------




--------------------------------------- Iteration      1(   2)  ---------------------------------------


    TRIAL :  cpu time   20.4963: real time   20.8168
    CORREC:  cpu time    0.0046: real time    0.0054
    --------------------------------------------
      LOOP:  cpu time   20.5019: real time   20.8253

 eigenvalue-minimisations  : 11664
 total energy-change (2. order) :-0.2126151E+04  (-0.2087714E+04)
 number of electron     270.0000000 magnetization      -3.0000000
 augmentation part      270.0000000 magnetization      -3.0000000

 Free energy of the ion-electron system (eV)
  ---------------------------------------------------
  alpha Z        PSCENC =       798.38614055
  Ewald energy   TEWEN  =    -12901.57693327
  -Hartree energ DENC   =     -2855.60785864
  -exchange      EXHF   =         0.00000000
  -V(xc)+E(xc)   XCENC  =      -996.16173865
  PAW double counting   =     12741.82587617   -11476.22345381
  entropy T*S    EENTRO =        -0.01479467
  eigenvalues    EBANDS =      1932.32386641
  atomic energy  EATOM  =     12697.67401269
  ---------------------------------------------------
  free energy    TOTEN  =       -59.37488324 eV

  energy without entropy =      -59.36008857  energy(sigma->0) =      -59.36995168


--------------------------------------------------------------------------------------------------------




--------------------------------------- Iteration      1(   3)  ---------------------------------------


    TRIAL :  cpu time   28.4899: real time   29.4178
    CORREC:  cpu time    0.0053: real time    0.0062
    --------------------------------------------
      LOOP:  cpu time   28.4960: real time   29.4274

 eigenvalue-minimisations  : 17582
 total energy-change (2. order) :-0.2859530E+03  (-0.2596120E+03)
 number of electron     270.0000000 magnetization      -3.0000000
 augmentation part      270.0000000 magnetization      -3.0000000

 Free energy of the ion-electron system (eV)
  ---------------------------------------------------
  alpha Z        PSCENC =       798.38614055
  Ewald energy   TEWEN  =    -12901.57693327
  -Hartree energ DENC   =     -2855.60785864
  -exchange      EXHF   =         0.00000000
  -V(xc)+E(xc)   XCENC  =      -996.16173865
  PAW double counting   =     12741.82587617   -11476.22345381
  entropy T*S    EENTRO =         0.00695027
  eigenvalues    EBANDS =      1646.34914371
  atomic energy  EATOM  =     12697.67401269
  ---------------------------------------------------
  free energy    TOTEN  =      -345.32786100 eV

  energy without entropy =     -345.33481127  energy(sigma->0) =     -345.33017775


--------------------------------------------------------------------------------------------------------




--------------------------------------- Iteration      1(   4)  ---------------------------------------


    TRIAL :  cpu time   30.2041: real time   30.5572
    CORREC:  cpu time    0.0056: real time    0.0057
    --------------------------------------------
      LOOP:  cpu time   30.2114: real time   30.5662

 eigenvalue-minimisations  : 18960
 total energy-change (2. order) :-0.5162375E+02  (-0.4620555E+02)
 number of electron     270.0000000 magnetization      -3.0000000
 augmentation part      270.0000000 magnetization      -3.0000000

 Free energy of the ion-electron system (eV)
  ---------------------------------------------------
  alpha Z        PSCENC =       798.38614055
  Ewald energy   TEWEN  =    -12901.57693327
  -Hartree energ DENC   =     -2855.60785864
  -exchange      EXHF   =         0.00000000
  -V(xc)+E(xc)   XCENC  =      -996.16173865
  PAW double counting   =     12741.82587617   -11476.22345381
  entropy T*S    EENTRO =         0.05008043
  eigenvalues    EBANDS =      1594.68226216
  atomic energy  EATOM  =     12697.67401269
  ---------------------------------------------------
  free energy    TOTEN  =      -396.95161239 eV

  energy without entropy =     -397.00169282  energy(sigma->0) =     -396.96830586


--------------------------------------------------------------------------------------------------------




--------------------------------------- Iteration      1(   5)  ---------------------------------------


    TRIAL :  cpu time   31.2379: real time   32.1630
    CORREC:  cpu time    0.0057: real time    0.0067
    --------------------------------------------
      LOOP:  cpu time   31.2446: real time   32.1736

 eigenvalue-minimisations  : 19760
 total energy-change (2. order) :-0.6538001E+01  (-0.6228238E+01)
 number of electron     270.0000000 magnetization      -3.0000000
 augmentation part      270.0000000 magnetization      -3.0000000

 Free energy of the ion-electron system (eV)
  ---------------------------------------------------
  alpha Z        PSCENC =       798.38614055
  Ewald energy   TEWEN  =    -12901.57693327
  -Hartree energ DENC   =     -2855.60785864
  -exchange      EXHF   =         0.00000000
  -V(xc)+E(xc)   XCENC  =      -996.16173865
  PAW double counting   =     12741.82587617   -11476.22345381
  entropy T*S    EENTRO =         0.06203538
  eigenvalues    EBANDS =      1588.13230582
  atomic energy  EATOM  =     12697.67401269
  ---------------------------------------------------
  free energy    TOTEN  =      -403.48961378 eV

  energy without entropy =     -403.55164916  energy(sigma->0) =     -403.51029224


--------------------------------------------------------------------------------------------------------




--------------------------------------- Iteration      1(   6)  ---------------------------------------


    TRIAL :  cpu time   31.1457: real time   32.1432
    CORREC:  cpu time    0.0056: real time    0.0057
    --------------------------------------------
      LOOP:  cpu time   31.1689: real time   32.1691

 eigenvalue-minimisations  : 19576
 total energy-change (2. order) :-0.5657435E+00  (-0.5496151E+00)
 number of electron     270.0000000 magnetization      -3.0000000
 augmentation part      270.0000000 magnetization      -3.0000000

 Free energy of the ion-electron system (eV)
  ---------------------------------------------------
  alpha Z        PSCENC =       798.38614055
  Ewald energy   TEWEN  =    -12901.57693327
  -Hartree energ DENC   =     -2855.60785864
  -exchange      EXHF   =         0.00000000
  -V(xc)+E(xc)   XCENC  =      -996.16173865
  PAW double counting   =     12741.82587617   -11476.22345381
  entropy T*S    EENTRO =         0.06385728
  eigenvalues    EBANDS =      1587.56474037
  atomic energy  EATOM  =     12697.67401269
  ---------------------------------------------------
  free energy    TOTEN  =      -404.05535732 eV

  energy without entropy =     -404.11921460  energy(sigma->0) =     -404.07664308


--------------------------------------------------------------------------------------------------------




--------------------------------------- Iteration      1(   7)  ---------------------------------------


    TRIAL :  cpu time   31.6553: real time   31.8911
    CORREC:  cpu time    0.0058: real time    0.0067
    --------------------------------------------
      LOOP:  cpu time   31.6620: real time   31.9017

 eigenvalue-minimisations  : 19968
 total energy-change (2. order) :-0.6730149E-01  (-0.6610846E-01)
 number of electron     270.0000000 magnetization      -3.0000000
 augmentation part      270.0000000 magnetization      -3.0000000

 Free energy of the ion-electron system (eV)
  ---------------------------------------------------
  alpha Z        PSCENC =       798.38614055
  Ewald energy   TEWEN  =    -12901.57693327
  -Hartree energ DENC   =     -2855.60785864
  -exchange      EXHF   =         0.00000000
  -V(xc)+E(xc)   XCENC  =      -996.16173865
  PAW double counting   =     12741.82587617   -11476.22345381
  entropy T*S    EENTRO =         0.06465055
  eigenvalues    EBANDS =      1587.49664561
  atomic energy  EATOM  =     12697.67401269
  ---------------------------------------------------
  free energy    TOTEN  =      -404.12265882 eV

  energy without entropy =     -404.18730937  energy(sigma->0) =     -404.14420900


--------------------------------------------------------------------------------------------------------




--------------------------------------- Iteration      1(   8)  ---------------------------------------


    TRIAL :  cpu time   30.6108: real time   31.7177
    CORREC:  cpu time    0.0061: real time    0.0069
    CHARGE:  cpu time    1.2010: real time    1.2009
    --------------------------------------------
      LOOP:  cpu time   31.8191: real time   32.9295

 eigenvalue-minimisations  : 19224
 total energy-change (2. order) :-0.7364060E-02  (-0.7271850E-02)
 number of electron     269.9999995 magnetization      -2.6761714
 augmentation part       64.1793235 magnetization      -1.5062307

 Free energy of the ion-electron system (eV)
  ---------------------------------------------------
  alpha Z        PSCENC =       798.38614055
  Ewald energy   TEWEN  =    -12901.57693327
  -Hartree energ DENC   =     -2855.60785864
  -exchange      EXHF   =         0.00000000
  -V(xc)+E(xc)   XCENC  =      -996.16173865
  PAW double counting   =     12741.82587617   -11476.22345381
  entropy T*S    EENTRO =         0.06503273
  eigenvalues    EBANDS =      1587.48889937
  atomic energy  EATOM  =     12697.67401269
  ---------------------------------------------------
  free energy    TOTEN  =      -404.13002288 eV

  energy without entropy =     -404.19505560  energy(sigma->0) =     -404.15170045


--------------------------------------------------------------------------------------------------------




--------------------------------------- Iteration      1(   9)  ---------------------------------------


    POTLOK:  cpu time    0.3978: real time    0.3978
    SETDIJ:  cpu time    0.4548: real time    0.4789
    TRIAL :  cpu time   10.4876: real time   10.5784
    CORREC:  cpu time    3.7760: real time    3.7960
    CHARGE:  cpu time    1.1986: real time    1.1987
    --------------------------------------------
      LOOP:  cpu time   16.3255: real time   16.4622

 eigenvalue-minimisations  :     0
 total energy-change (2. order) : 0.3003215E+03  (-0.2185211E+03)
 number of electron     269.9999993 magnetization      -2.3084120
 augmentation part       82.6124263 magnetization      -1.4875692

 Free energy of the ion-electron system (eV)
  ---------------------------------------------------
  alpha Z        PSCENC =       798.38614055
  Ewald energy   TEWEN  =    -12901.57693327
  -Hartree energ DENC   =     -1271.83055183
  -exchange      EXHF   =         0.00000000
  -V(xc)+E(xc)   XCENC  =     -1041.74738614
  PAW double counting   =     19166.82729954   -17747.21098204
  entropy T*S    EENTRO =         0.03008346
  eigenvalues    EBANDS =       195.60480066
  atomic energy  EATOM  =     12697.67401269
  ---------------------------------------------------
  free energy    TOTEN  =      -103.80856712 eV

  energy without entropy =     -103.83865058  energy(sigma->0) =     -103.81859494


--------------------------------------------------------------------------------------------------------




--------------------------------------- Iteration      1(  10)  ---------------------------------------


    POTLOK:  cpu time    0.4149: real time    0.4149
    SETDIJ:  cpu time    0.4541: real time    0.4541
    TRIAL :  cpu time   10.4174: real time   10.4653
    CORREC:  cpu time    4.2264: real time    4.2589
    CHARGE:  cpu time    1.2114: real time    1.2114
    --------------------------------------------
      LOOP:  cpu time   16.7341: real time   16.8159

 eigenvalue-minimisations  :     0
 total energy-change (2. order) :-0.2141426E+03  (-0.1208501E+02)
 number of electron     269.9999993 magnetization      -2.3890668
 augmentation part       86.5564129 magnetization      -1.6200473

 Free energy of the ion-electron system (eV)
  ---------------------------------------------------
  alpha Z        PSCENC =       798.38614055
  Ewald energy   TEWEN  =    -12901.57693327
  -Hartree energ DENC   =     -2112.26544767
  -exchange      EXHF   =         0.00000000
  -V(xc)+E(xc)   XCENC  =     -1012.51350463
  PAW double counting   =     20656.44813609   -19419.13892633
  entropy T*S    EENTRO =         0.02113647
  eigenvalues    EBANDS =       975.00529837
  atomic energy  EATOM  =     12697.67401269
  ---------------------------------------------------
  free energy    TOTEN  =      -317.95114073 eV

  energy without entropy =     -317.97227720  energy(sigma->0) =     -317.95818622


--------------------------------------------------------------------------------------------------------




--------------------------------------- Iteration      1(  11)  ---------------------------------------


    POTLOK:  cpu time    0.3922: real time    0.3921
    SETDIJ:  cpu time    0.4610: real time    0.4610
    TRIAL :  cpu time   10.3761: real time   10.5417
    CORREC:  cpu time    3.7718: real time    3.8192
    CHARGE:  cpu time    1.2086: real time    1.2086
    --------------------------------------------
      LOOP:  cpu time   16.2127: real time   16.4258

 eigenvalue-minimisations  :     0
 total energy-change (2. order) :-0.1153526E+02  (-0.1093473E+02)
 number of electron     269.9999992 magnetization      -2.0083933
 augmentation part       89.0123571 magnetization      -1.4200107

 Free energy of the ion-electron system (eV)
  ---------------------------------------------------
  alpha Z        PSCENC =       798.38614055
  Ewald energy   TEWEN  =    -12901.57693327
  -Hartree energ DENC   =     -2346.55020583
  -exchange      EXHF   =         0.00000000
  -V(xc)+E(xc)   XCENC  =     -1003.91767213
  PAW double counting   =     21567.92330161   -20369.69055477
  entropy T*S    EENTRO =         0.01968338
  eigenvalues    EBANDS =      1228.24437692
  atomic energy  EATOM  =     12697.67401269
  ---------------------------------------------------
  free energy    TOTEN  =      -329.48639777 eV

  energy without entropy =     -329.50608115  energy(sigma->0) =     -329.49295890


--------------------------------------------------------------------------------------------------------




--------------------------------------- Iteration      1(  12)  ---------------------------------------


    POTLOK:  cpu time    0.3929: real time    0.3929
    SETDIJ:  cpu time    0.4203: real time    0.5027
    TRIAL :  cpu time   10.3549: real time   11.1758
    CORREC:  cpu time    3.8495: real time    3.9004
    CHARGE:  cpu time    1.1979: real time    1.1980
    --------------------------------------------
      LOOP:  cpu time   16.2865: real time   17.2421

 eigenvalue-minimisations  :     0
 total energy-change (2. order) :-0.1096841E+02  (-0.1215540E+02)
 number of electron     269.9999993 magnetization      -1.8724635
 augmentation part       86.8226648 magnetization      -1.3222388

 Free energy of the ion-electron system (eV)
  ---------------------------------------------------
  alpha Z        PSCENC =       798.38614055
  Ewald energy   TEWEN  =    -12901.57693327
  -Hartree energ DENC   =     -2546.83585279
  -exchange      EXHF   =         0.00000000
  -V(xc)+E(xc)   XCENC  =      -997.01889376
  PAW double counting   =     21841.32325344   -20654.83940150
  entropy T*S    EENTRO =        -0.00231661
  eigenvalues    EBANDS =      1422.41318542
  atomic energy  EATOM  =     12697.67401269
  ---------------------------------------------------
  free energy    TOTEN  =      -340.45480585 eV

  energy without entropy =     -340.45248924  energy(sigma->0) =     -340.45403365


--------------------------------------------------------------------------------------------------------




--------------------------------------- Iteration      1(  13)  ---------------------------------------


    POTLOK:  cpu time    0.3927: real time    0.3926
    SETDIJ:  cpu time    0.4862: real time    0.4862
    TRIAL :  cpu time   10.4277: real time   10.5190
    CORREC:  cpu time    3.7887: real time    3.7901
    CHARGE:  cpu time    1.2011: real time    1.2011
    --------------------------------------------
      LOOP:  cpu time   16.3086: real time   16.4013

 eigenvalue-minimisations  :     0
 total energy-change (2. order) :-0.1202553E+02  (-0.9002004E+00)
 number of electron     269.9999993 magnetization      -1.9484268
 augmentation part       86.2283821 magnetization      -1.3655256

 Free energy of the ion-electron system (eV)
  ---------------------------------------------------
  alpha Z        PSCENC =       798.38614055
  Ewald energy   TEWEN  =    -12901.57693327
  -Hartree energ DENC   =     -2521.13524752
  -exchange      EXHF   =         0.00000000
  -V(xc)+E(xc)   XCENC  =      -998.87930428
  PAW double counting   =     21273.84820124   -20036.47469292
  entropy T*S    EENTRO =        -0.00350446
  eigenvalues    EBANDS =      1335.67980666
  atomic energy  EATOM  =     12697.67401269
  ---------------------------------------------------
  free energy    TOTEN  =      -352.48033347 eV

  energy without entropy =     -352.47682901  energy(sigma->0) =     -352.47916532


--------------------------------------------------------------------------------------------------------




--------------------------------------- Iteration      1(  14)  ---------------------------------------


    POTLOK:  cpu time    0.4154: real time    0.4154
    SETDIJ:  cpu time    0.4528: real time    0.4528
    TRIAL :  cpu time   10.4219: real time   10.4710
    CORREC:  cpu time    3.7204: real time    3.8417
    CHARGE:  cpu time    1.1924: real time    1.2018
    --------------------------------------------
      LOOP:  cpu time   16.2112: real time   16.3920

 eigenvalue-minimisations  :     0
 total energy-change (2. order) :-0.8899025E+00  (-0.1163517E+01)
 number of electron     269.9999993 magnetization      -1.8144440
 augmentation part       85.9068163 magnetization      -1.2706537

 Free energy of the ion-electron system (eV)
  ---------------------------------------------------
  alpha Z        PSCENC =       798.38614055
  Ewald energy   TEWEN  =    -12901.57693327
  -Hartree energ DENC   =     -2489.04591161
  -exchange      EXHF   =         0.00000000
  -V(xc)+E(xc)   XCENC  =     -1000.10928137
  PAW double counting   =     20918.06301121   -19670.92423264
  entropy T*S    EENTRO =        -0.00241422
  eigenvalues    EBANDS =      1294.16646290
  atomic energy  EATOM  =     12697.67401269
  ---------------------------------------------------
  free energy    TOTEN  =      -353.37023601 eV

  energy without entropy =     -353.36782179  energy(sigma->0) =     -353.36943127


--------------------------------------------------------------------------------------------------------




--------------------------------------- Iteration      1(  15)  ---------------------------------------


    POTLOK:  cpu time    0.4079: real time    0.4079
    SETDIJ:  cpu time    0.4485: real time    0.4485
    TRIAL :  cpu time   10.3816: real time   10.5682
    CORREC:  cpu time    3.7709: real time    4.5031
    CHARGE:  cpu time    1.2147: real time    1.2147
    --------------------------------------------
      LOOP:  cpu time   16.2312: real time   17.1501

 eigenvalue-minimisations  :     0
 total energy-change (2. order) :-0.1159495E+01  (-0.7246611E+00)
 number of electron     269.9999992 magnetization      -1.8022152
 augmentation part       86.6160227 magnetization      -1.2185700

 Free energy of the ion-electron system (eV)
  ---------------------------------------------------
  alpha Z        PSCENC =       798.38614055
  Ewald energy   TEWEN  =    -12901.57693327
  -Hartree energ DENC   =     -2460.13940324
  -exchange      EXHF   =         0.00000000
  -V(xc)+E(xc)   XCENC  =     -1001.20337782
  PAW double counting   =     20158.99121372   -18902.92895271
  entropy T*S    EENTRO =        -0.00019768
  eigenvalues    EBANDS =      1256.26998319
  atomic energy  EATOM  =     12697.67401269
  ---------------------------------------------------
  free energy    TOTEN  =      -354.52973110 eV

  energy without entropy =     -354.52953342  energy(sigma->0) =     -354.52966521


--------------------------------------------------------------------------------------------------------




--------------------------------------- Iteration      1(  16)  ---------------------------------------


    POTLOK:  cpu time    0.3940: real time    0.3940
    SETDIJ:  cpu time    0.4189: real time    0.4997
    TRIAL :  cpu time   10.4295: real time   10.4853
    CORREC:  cpu time    3.8655: real time    3.8846
    CHARGE:  cpu time    1.2043: real time    1.2104
    --------------------------------------------
      LOOP:  cpu time   16.3214: real time   16.4841

 eigenvalue-minimisations  :     0
 total energy-change (2. order) :-0.7245420E+00  (-0.2635958E+00)
 number of electron     269.9999992 magnetization      -1.8147117
 augmentation part       87.1724058 magnetization      -1.2257950

 Free energy of the ion-electron system (eV)
  ---------------------------------------------------
  alpha Z        PSCENC =       798.38614055
  Ewald energy   TEWEN  =    -12901.57693327
  -Hartree energ DENC   =     -2486.04576402
  -exchange      EXHF   =         0.00000000
  -V(xc)+E(xc)   XCENC  =     -1000.22497062
  PAW double counting   =     19733.91552105   -18482.57233871
  entropy T*S    EENTRO =         0.00097133
  eigenvalues    EBANDS =      1285.19025688
  atomic energy  EATOM  =     12697.67401269
  ---------------------------------------------------
  free energy    TOTEN  =      -355.25427315 eV

  energy without entropy =     -355.25524448  energy(sigma->0) =     -355.25459692


--------------------------------------------------------------------------------------------------------




--------------------------------------- Iteration      1(  17)  ---------------------------------------


    POTLOK:  cpu time    0.3930: real time    0.3930
    SETDIJ:  cpu time    0.4616: real time    0.4616
    TRIAL :  cpu time   10.4294: real time   10.4685
    CORREC:  cpu time    3.7302: real time    3.7673
    CHARGE:  cpu time    1.2127: real time    1.2127
    --------------------------------------------
      LOOP:  cpu time   16.2351: real time   16.3117

 eigenvalue-minimisations  :     0
 total energy-change (2. order) :-0.2637840E+00  (-0.2721194E+00)
 number of electron     269.9999992 magnetization      -1.6759412
 augmentation part       87.2751200 magnetization      -1.1782772

 Free energy of the ion-electron system (eV)
  ---------------------------------------------------
  alpha Z        PSCENC =       798.38614055
  Ewald energy   TEWEN  =    -12901.57693327
  -Hartree energ DENC   =     -2510.73191306
  -exchange      EXHF   =         0.00000000
  -V(xc)+E(xc)   XCENC  =      -999.20657011
  PAW double counting   =     19617.56303797   -18371.61024983
  entropy T*S    EENTRO =         0.00116805
  eigenvalues    EBANDS =      1313.98344657
  atomic energy  EATOM  =     12697.67401269
  ---------------------------------------------------
  free energy    TOTEN  =      -355.51805714 eV

  energy without entropy =     -355.51922519  energy(sigma->0) =     -355.51844649


--------------------------------------------------------------------------------------------------------




--------------------------------------- Iteration      1(  18)  ---------------------------------------


    POTLOK:  cpu time    0.3940: real time    0.3940
    SETDIJ:  cpu time    0.4589: real time    0.4590
    TRIAL :  cpu time   10.4096: real time   10.5577
    CORREC:  cpu time    3.7907: real time    3.8407
    CHARGE:  cpu time    1.2015: real time    1.2018
    --------------------------------------------
      LOOP:  cpu time   16.2639: real time   16.4640

 eigenvalue-minimisations  :     0
 total energy-change (2. order) :-0.2721219E+00  (-0.1474231E+00)
 number of electron     269.9999992 magnetization      -1.7186600
 augmentation part       87.0753529 magnetization      -1.1888964

 Free energy of the ion-electron system (eV)
  ---------------------------------------------------
  alpha Z        PSCENC =       798.38614055
  Ewald energy   TEWEN  =    -12901.57693327
  -Hartree energ DENC   =     -2512.45936608
  -exchange      EXHF   =         0.00000000
  -V(xc)+E(xc)   XCENC  =      -998.83952747
  PAW double counting   =     19517.51090448   -18272.45613267
  entropy T*S    EENTRO =         0.00246837
  eigenvalues    EBANDS =      1315.96955466
  atomic energy  EATOM  =     12697.67401269
  ---------------------------------------------------
  free energy    TOTEN  =      -355.79017907 eV

  energy without entropy =     -355.79264744  energy(sigma->0) =     -355.79100186


--------------------------------------------------------------------------------------------------------




--------------------------------------- Iteration      1(  19)  ---------------------------------------


    POTLOK:  cpu time    0.3877: real time    0.4440
    SETDIJ:  cpu time    0.4729: real time    0.4729
    TRIAL :  cpu time   10.3742: real time   11.1981
    CORREC:  cpu time    3.7761: real time    3.7959
    CHARGE:  cpu time    1.2105: real time    1.2108
    --------------------------------------------
      LOOP:  cpu time   16.2249: real time   17.1262

 eigenvalue-minimisations  :     0
 total energy-change (2. order) :-0.1466076E+00  (-0.5977412E-01)
 number of electron     269.9999992 magnetization      -1.7207875
 augmentation part       86.8979974 magnetization      -1.1837234

 Free energy of the ion-electron system (eV)
  ---------------------------------------------------
  alpha Z        PSCENC =       798.38614055
  Ewald energy   TEWEN  =    -12901.57693327
  -Hartree energ DENC   =     -2500.77948562
  -exchange      EXHF   =         0.00000000
  -V(xc)+E(xc)   XCENC  =      -999.06397666
  PAW double counting   =     19467.48773885   -18220.28759434
  entropy T*S    EENTRO =         0.00240075
  eigenvalues    EBANDS =      1302.22084279
  atomic energy  EATOM  =     12697.67401269
  ---------------------------------------------------
  free energy    TOTEN  =      -355.93678664 eV

  energy without entropy =     -355.93918738  energy(sigma->0) =     -355.93758688


--------------------------------------------------------------------------------------------------------




--------------------------------------- Iteration      1(  20)  ---------------------------------------


    POTLOK:  cpu time    0.3973: real time    0.4014
    SETDIJ:  cpu time    0.4673: real time    0.4948
    TRIAL :  cpu time   10.4705: real time   10.5311
    CORREC:  cpu time    3.7642: real time    3.7988
    CHARGE:  cpu time    1.2098: real time    1.2099
    --------------------------------------------
      LOOP:  cpu time   16.3106: real time   16.4387

 eigenvalue-minimisations  :     0
 total energy-change (2. order) :-0.5966927E-01  (-0.1010907E+00)
 number of electron     269.9999992 magnetization      -1.6450957
 augmentation part       86.7612003 magnetization      -1.1589956

 Free energy of the ion-electron system (eV)
  ---------------------------------------------------
  alpha Z        PSCENC =       798.38614055
  Ewald energy   TEWEN  =    -12901.57693327
  -Hartree energ DENC   =     -2492.53687115
  -exchange      EXHF   =         0.00000000
  -V(xc)+E(xc)   XCENC  =      -999.27819394
  PAW double counting   =     19450.29716273   -18201.33466934
  entropy T*S    EENTRO =         0.00198581
  eigenvalues    EBANDS =      1292.37049507
  atomic energy  EATOM  =     12697.67401269
  ---------------------------------------------------
  free energy    TOTEN  =      -355.99645591 eV

  energy without entropy =     -355.99844172  energy(sigma->0) =     -355.99711784


--------------------------------------------------------------------------------------------------------




--------------------------------------- Iteration      1(  21)  ---------------------------------------


    POTLOK:  cpu time    0.3929: real time    0.3929
    SETDIJ:  cpu time    0.5117: real time    0.5118
    TRIAL :  cpu time   10.7855: real time   10.8329
    CORREC:  cpu time    3.9648: real time    3.9749
    CHARGE:  cpu time    1.1381: real time    1.2510
    --------------------------------------------
      LOOP:  cpu time   16.7973: real time   16.9686

 eigenvalue-minimisations  :     0
 total energy-change (2. order) :-0.1010934E+00  (-0.5275376E-01)
 number of electron     269.9999992 magnetization      -1.6730176
 augmentation part       86.9081088 magnetization      -1.1622449

 Free energy of the ion-electron system (eV)
  ---------------------------------------------------
  alpha Z        PSCENC =       798.38614055
  Ewald energy   TEWEN  =    -12901.57693327
  -Hartree energ DENC   =     -2489.48638132
  -exchange      EXHF   =         0.00000000
  -V(xc)+E(xc)   XCENC  =      -999.25562966
  PAW double counting   =     19452.20751354   -18202.38668226
  entropy T*S    EENTRO =         0.00235084
  eigenvalues    EBANDS =      1288.33842461
  atomic energy  EATOM  =     12697.67401269
  ---------------------------------------------------
  free energy    TOTEN  =      -356.09754932 eV

  energy without entropy =     -356.09990016  energy(sigma->0) =     -356.09833294


--------------------------------------------------------------------------------------------------------




--------------------------------------- Iteration      1(  22)  ---------------------------------------


    POTLOK:  cpu time    0.3952: real time    0.3952
    SETDIJ:  cpu time    0.4587: real time    0.4848
    TRIAL :  cpu time   10.3845: real time   10.5232
    CORREC:  cpu time    3.8623: real time    3.9284
    CHARGE:  cpu time    1.2036: real time    1.2068
    --------------------------------------------
      LOOP:  cpu time   16.3055: real time   16.5411

 eigenvalue-minimisations  :     0
 total energy-change (2. order) :-0.5281873E-01  (-0.2070451E-01)
 number of electron     269.9999992 magnetization      -1.6340432
 augmentation part       86.9853471 magnetization      -1.1418476

 Free energy of the ion-electron system (eV)
  ---------------------------------------------------
  alpha Z        PSCENC =       798.38614055
  Ewald energy   TEWEN  =    -12901.57693327
  -Hartree energ DENC   =     -2499.70916967
  -exchange      EXHF   =         0.00000000
  -V(xc)+E(xc)   XCENC  =      -998.81887275
  PAW double counting   =     19476.85372195   -18229.05167653
  entropy T*S    EENTRO =         0.00210476
  eigenvalues    EBANDS =      1300.09005814
  atomic energy  EATOM  =     12697.67401269
  ---------------------------------------------------
  free energy    TOTEN  =      -356.15036805 eV

  energy without entropy =     -356.15247282  energy(sigma->0) =     -356.15106964


--------------------------------------------------------------------------------------------------------




--------------------------------------- Iteration      1(  23)  ---------------------------------------


    POTLOK:  cpu time    0.3924: real time    0.3924
    SETDIJ:  cpu time    0.4778: real time    0.4778
    TRIAL :  cpu time   10.4379: real time   11.2408
    CORREC:  cpu time    3.7708: real time    3.8116
    CHARGE:  cpu time    1.2670: real time    1.2670
    --------------------------------------------
      LOOP:  cpu time   16.3513: real time   17.1957

 eigenvalue-minimisations  :     0
 total energy-change (2. order) :-0.2072391E-01  (-0.2298500E-01)
 number of electron     269.9999992 magnetization      -1.6326466
 augmentation part       86.9534340 magnetization      -1.1299971

 Free energy of the ion-electron system (eV)
  ---------------------------------------------------
  alpha Z        PSCENC =       798.38614055
  Ewald energy   TEWEN  =    -12901.57693327
  -Hartree energ DENC   =     -2504.55769628
  -exchange      EXHF   =         0.00000000
  -V(xc)+E(xc)   XCENC  =      -998.61437854
  PAW double counting   =     19487.02794712   -18240.17520450
  entropy T*S    EENTRO =         0.00258096
  eigenvalues    EBANDS =      1305.66291549
  atomic energy  EATOM  =     12697.67401269
  ---------------------------------------------------
  free energy    TOTEN  =      -356.17109197 eV

  energy without entropy =     -356.17367293  energy(sigma->0) =     -356.17195229


--------------------------------------------------------------------------------------------------------




--------------------------------------- Iteration      1(  24)  ---------------------------------------


    POTLOK:  cpu time    0.3886: real time    0.4030
    SETDIJ:  cpu time    0.4650: real time    0.4650
    TRIAL :  cpu time   10.4325: real time   10.4793
    CORREC:  cpu time    3.7844: real time    3.8050
    CHARGE:  cpu time    1.2129: real time    1.2131
    --------------------------------------------
      LOOP:  cpu time   16.2851: real time   16.3680

 eigenvalue-minimisations  :     0
 total energy-change (2. order) :-0.2297562E-01  (-0.2129181E-01)
 number of electron     269.9999992 magnetization      -1.6344918
 augmentation part       86.9017297 magnetization      -1.1195643

 Free energy of the ion-electron system (eV)
  ---------------------------------------------------
  alpha Z        PSCENC =       798.38614055
  Ewald energy   TEWEN  =    -12901.57693327
  -Hartree energ DENC   =     -2503.02746118
  -exchange      EXHF   =         0.00000000
  -V(xc)+E(xc)   XCENC  =      -998.60943383
  PAW double counting   =     19483.01081996   -18235.74361743
  entropy T*S    EENTRO =         0.00270253
  eigenvalues    EBANDS =      1303.68982396
  atomic energy  EATOM  =     12697.67401269
  ---------------------------------------------------
  free energy    TOTEN  =      -356.19406759 eV

  energy without entropy =     -356.19677011  energy(sigma->0) =     -356.19496843


--------------------------------------------------------------------------------------------------------




--------------------------------------- Iteration      1(  25)  ---------------------------------------


    POTLOK:  cpu time    0.3929: real time    0.3929
    SETDIJ:  cpu time    0.4641: real time    0.4641
    TRIAL :  cpu time   10.3887: real time   10.5171
    CORREC:  cpu time    3.8257: real time    3.8478
    CHARGE:  cpu time    1.2119: real time    1.2166
    --------------------------------------------
      LOOP:  cpu time   16.2921: real time   16.4486

 eigenvalue-minimisations  :     0
 total energy-change (2. order) :-0.2131545E-01  (-0.2072624E-01)
 number of electron     269.9999992 magnetization      -1.6090301
 augmentation part       86.9059755 magnetization      -1.1106933

 Free energy of the ion-electron system (eV)
  ---------------------------------------------------
  alpha Z        PSCENC =       798.38614055
  Ewald energy   TEWEN  =    -12901.57693327
[...]
   45       -0.023  -0.021  -2.202  -2.245
   46        0.014   0.022   2.269   2.305
   47       -0.019  -0.017  -2.392  -2.427
   48       -0.025  -0.024  -2.273  -2.322
   49        0.014   0.021   2.260   2.294
   50       -0.019  -0.016  -2.386  -2.421
   51       -0.025  -0.024  -2.271  -2.319
   52        0.017   0.011   2.290   2.318
   53       -0.015  -0.026  -2.334  -2.374
   54       -0.003   0.002  -2.292  -2.293
--------------------------------------------------
tot          0.002   0.013  -1.632  -1.617
 
    FORLOC:  cpu time    0.0582: real time    0.0582
    FORNL :  cpu time   16.8393: real time   17.6592
    STRESS:  cpu time   25.6059: real time   25.7341
    FORCOR:  cpu time    0.4403: real time    0.4403
    OFIELD:  cpu time    0.0022: real time    0.0022

  FORCE on cell =-STRESS in cart. coord.  units (eV):
  Direction    XX          YY          ZZ          XY          YZ          ZX
  --------------------------------------------------------------------------------------
  Alpha Z   798.38614   798.38614   798.38614
  Ewald   -4053.61603 -4053.61603 -4794.40593    -0.00000    -0.00000    -0.00000
  Hartree  1084.03341  1084.03341   333.33430    -0.00000    -0.00000    -0.00000
  E(xc)   -1141.35462 -1141.35462 -1139.62233    -0.00000     0.00000     0.00000
  Local     369.14978   369.14978  1904.29996     0.00000     0.00000     0.00000
  n-local  -172.32436  -169.28840  -176.60462     0.27367    -0.14293    -0.35465
  augment   784.35158   784.35158   767.66494     0.00000     0.00001     0.00001
  Kinetic  2328.35262  2342.78910  2309.37911    -2.24623    -1.60281    -1.20725
  Fock        0.00000     0.00000     0.00000     0.00000     0.00000     0.00000
  -------------------------------------------------------------------------------------
  Total       5.71473     5.71473     2.43156     0.00000     0.00000    -0.00000
  in kB      12.89741    12.89741     5.48772     0.00000     0.00000    -0.00000
  external pressure =       10.43 kB  Pullay stress =        0.00 kB


 VOLUME and BASIS-vectors are now :
 -----------------------------------------------------------------------------
  energy-cutoff  :      404.80
  volume of cell :      709.91
      direct lattice vectors                 reciprocal lattice vectors
     8.250148166  0.000000000  0.000000000     0.121209944  0.000000000  0.000000000
     0.000000000  8.250148166  0.000000000     0.000000000  0.121209944  0.000000000
     0.000000000  0.000000000 10.429911392     0.000000000  0.000000000  0.095878092

  length of vectors
     8.250148166  8.250148166 10.429911392     0.121209944  0.121209944  0.095878092


 FORCES acting on ions:
    Electron-Ion                     Ewald-Force                    Non-Local-Force
 -----------------------------------------------------------------------------------------------
   -.110E+00 -.110E+00 0.129E+00   -.239E-08 -.239E-08 -.210E-08   0.475E-01 0.475E-01 -.646E-01
   -.195E-01 -.195E-01 -.686E-01   -.239E-08 -.239E-08 0.171E-08   0.723E-02 0.723E-02 0.336E-01
   -.516E-01 -.516E-01 -.104E+00   -.239E-08 -.239E-08 0.861E-08   -.392E-01 -.392E-01 0.616E-01
   -.567E-01 0.372E-09 0.876E-01   -.239E-08 -.802E-09 -.210E-08   0.975E-01 0.542E-19 -.159E-01
   0.170E-02 0.373E-09 -.212E-01   -.239E-08 -.802E-09 0.171E-08   0.241E-02 0.000E+00 -.293E-02
   0.510E-01 0.372E-09 -.261E-01   -.239E-08 -.802E-09 0.861E-08   -.104E+00 -.867E-18 -.165E-01
   -.110E+00 0.110E+00 0.129E+00   -.239E-08 0.631E-08 -.210E-08   0.475E-01 -.475E-01 -.646E-01
   -.195E-01 0.195E-01 -.686E-01   -.239E-08 0.631E-08 0.171E-08   0.723E-02 -.723E-02 0.336E-01
   -.516E-01 0.516E-01 -.104E+00   -.239E-08 0.631E-08 0.861E-08   -.392E-01 0.392E-01 0.616E-01
   0.372E-09 -.567E-01 0.876E-01   -.802E-09 -.239E-08 -.210E-08   0.108E-18 0.975E-01 -.159E-01
   0.373E-09 0.170E-02 -.212E-01   -.802E-09 -.239E-08 0.171E-08   0.000E+00 0.241E-02 -.293E-02
   0.372E-09 0.510E-01 -.261E-01   -.803E-09 -.239E-08 0.861E-08   -.434E-18 -.104E+00 -.165E-01
   0.372E-09 0.372E-09 0.794E-01   -.802E-09 -.802E-09 -.210E-08   0.000E+00 0.000E+00 -.107E+00
   0.373E-09 0.373E-09 0.208E+00   -.802E-09 -.802E-09 0.171E-08   0.000E+00 0.000E+00 -.107E+00
   0.372E-09 0.372E-09 0.985E-03   -.803E-09 -.802E-09 0.861E-08   0.000E+00 -.163E-18 0.147E-01
   0.372E-09 0.567E-01 0.876E-01   -.802E-09 0.631E-08 -.210E-08   -.271E-18 -.975E-01 -.159E-01
   0.373E-09 -.170E-02 -.212E-01   -.802E-09 0.631E-08 0.171E-08   0.271E-19 -.241E-02 -.293E-02
   0.372E-09 -.510E-01 -.261E-01   -.803E-09 0.631E-08 0.861E-08   -.217E-18 0.104E+00 -.165E-01
   0.110E+00 -.110E+00 0.129E+00   0.631E-08 -.239E-08 -.210E-08   -.475E-01 0.475E-01 -.646E-01
   0.195E-01 -.195E-01 -.686E-01   0.631E-08 -.239E-08 0.171E-08   -.723E-02 0.723E-02 0.336E-01
   0.516E-01 -.516E-01 -.104E+00   0.631E-08 -.239E-08 0.861E-08   0.392E-01 -.392E-01 0.616E-01
   0.567E-01 0.372E-09 0.876E-01   0.631E-08 -.802E-09 -.210E-08   -.975E-01 -.108E-18 -.159E-01
   -.170E-02 0.373E-09 -.212E-01   0.631E-08 -.802E-09 0.171E-08   -.241E-02 -.949E-19 -.293E-02
   -.510E-01 0.372E-09 -.261E-01   0.631E-08 -.802E-09 0.861E-08   0.104E+00 0.000E+00 -.165E-01
   0.110E+00 0.110E+00 0.129E+00   0.631E-08 0.631E-08 -.210E-08   -.475E-01 -.475E-01 -.646E-01
   0.195E-01 0.195E-01 -.686E-01   0.631E-08 0.631E-08 0.171E-08   -.723E-02 -.723E-02 0.336E-01
   0.516E-01 0.516E-01 -.104E+00   0.631E-08 0.631E-08 0.861E-08   0.392E-01 0.392E-01 0.616E-01
   -.143E-01 -.143E-01 -.151E+00   -.169E-07 -.169E-07 -.180E-07   -.109E-01 -.109E-01 0.266E+00
   0.666E-01 0.666E-01 -.132E+00   -.169E-07 -.169E-07 -.170E-08   -.206E-01 -.206E-01 0.106E+00
   0.463E+00 0.463E+00 0.181E+00   -.169E-07 -.169E-07 0.115E-07   -.218E+00 -.218E+00 -.198E+00
   -.143E-01 0.143E-01 -.151E+00   -.169E-07 0.802E-09 -.180E-07   -.109E-01 0.109E-01 0.266E+00
   0.666E-01 -.666E-01 -.132E+00   -.169E-07 0.802E-09 -.170E-08   -.206E-01 0.206E-01 0.106E+00
   0.463E+00 -.463E+00 0.181E+00   -.169E-07 0.802E-09 0.115E-07   -.218E+00 0.218E+00 -.198E+00
   0.209E-02 -.605E-08 0.213E+00   -.169E-07 0.130E-07 -.180E-07   0.576E-01 -.434E-18 -.248E+00
   -.254E-02 -.605E-08 0.816E-01   -.169E-07 0.130E-07 -.170E-08   -.349E-01 0.000E+00 -.151E+00
   -.170E+00 -.605E-08 -.182E+00   -.169E-07 0.130E-07 0.115E-07   0.142E+00 0.000E+00 0.184E+00
   0.143E-01 -.143E-01 -.151E+00   0.802E-09 -.169E-07 -.180E-07   0.109E-01 -.109E-01 0.266E+00
   -.666E-01 0.666E-01 -.132E+00   0.802E-09 -.169E-07 -.170E-08   0.206E-01 -.206E-01 0.106E+00
   -.463E+00 0.463E+00 0.181E+00   0.802E-09 -.169E-07 0.115E-07   0.218E+00 -.218E+00 -.198E+00
   0.143E-01 0.143E-01 -.151E+00   0.802E-09 0.802E-09 -.180E-07   0.109E-01 0.109E-01 0.266E+00
   -.666E-01 -.666E-01 -.132E+00   0.802E-09 0.802E-09 -.170E-08   0.206E-01 0.206E-01 0.106E+00
   -.463E+00 -.463E+00 0.181E+00   0.802E-09 0.802E-09 0.115E-07   0.218E+00 0.218E+00 -.198E+00
   -.209E-02 -.605E-08 0.213E+00   0.802E-09 0.130E-07 -.180E-07   -.576E-01 0.000E+00 -.248E+00
   0.254E-02 -.605E-08 0.816E-01   0.802E-09 0.130E-07 -.170E-08   0.349E-01 0.000E+00 -.151E+00
   0.170E+00 -.605E-08 -.182E+00   0.802E-09 0.130E-07 0.115E-07   -.142E+00 -.108E-17 0.184E+00
   -.605E-08 0.209E-02 0.213E+00   0.130E-07 -.169E-07 -.180E-07   -.434E-18 0.576E-01 -.248E+00
   -.605E-08 -.254E-02 0.816E-01   0.130E-07 -.169E-07 -.170E-08   -.813E-19 -.349E-01 -.151E+00
   -.605E-08 -.170E+00 -.182E+00   0.130E-07 -.169E-07 0.115E-07   0.434E-18 0.142E+00 0.184E+00
   -.605E-08 -.209E-02 0.213E+00   0.130E-07 0.802E-09 -.180E-07   0.108E-18 -.576E-01 -.248E+00
   -.605E-08 0.254E-02 0.816E-01   0.130E-07 0.802E-09 -.170E-08   0.434E-18 0.349E-01 -.151E+00
   -.605E-08 0.170E+00 -.182E+00   0.130E-07 0.802E-09 0.115E-07   0.867E-18 -.142E+00 0.184E+00
   -.605E-08 -.605E-08 -.412E-01   0.130E-07 0.130E-07 -.180E-07   0.867E-18 0.130E-17 0.514E-01
   -.605E-08 -.605E-08 -.614E-01   0.130E-07 0.130E-07 -.170E-08   0.217E-18 0.434E-18 0.294E-02
   -.604E-08 -.605E-08 -.258E-01   0.130E-07 0.130E-07 0.115E-07   0.000E+00 0.000E+00 0.112E+00
 -----------------------------------------------------------------------------------------------
   -.360E-07 -.360E-07 0.217E+00   -.614E-13 -.142E-13 0.128E-13   -.809E-16 0.295E-16 -.217E+00
 
 
 POSITION                                       TOTAL-FORCE (eV/Angst)
 -----------------------------------------------------------------------------------
      0.00000      0.00000      0.00000        -0.066810     -0.066810      0.068785
      0.00000      0.00000      3.47664        -0.012981     -0.012981     -0.038323
      0.00000      0.00000      6.95327        -0.087268     -0.087268     -0.046558
      0.00000      2.75005      0.00000         0.032585      0.000000      0.071581
      0.00000      2.75005      3.47664         0.003848      0.000000     -0.024298
      0.00000      2.75005      6.95327        -0.044185      0.000000     -0.039487
      0.00000      5.50010      0.00000        -0.066810      0.066810      0.068785
      0.00000      5.50010      3.47664        -0.012981      0.012981     -0.038323
      0.00000      5.50010      6.95327        -0.087268      0.087268     -0.046558
      2.75005      0.00000      0.00000        -0.000000      0.032585      0.071581
      2.75005      0.00000      3.47664         0.000000      0.003848     -0.024298
      2.75005      0.00000      6.95327         0.000000     -0.044185     -0.039487
      2.75005      2.75005      0.00000        -0.000000      0.000000     -0.018599
      2.75005      2.75005      3.47664         0.000000      0.000000      0.111946
      2.75005      2.75005      6.95327         0.000000      0.000000      0.015708
      2.75005      5.50010      0.00000         0.000000     -0.032585      0.071581
      2.75005      5.50010      3.47664         0.000000     -0.003848     -0.024298
      2.75005      5.50010      6.95327        -0.000000      0.044185     -0.039487
      5.50010      0.00000      0.00000         0.066810     -0.066810      0.068785
      5.50010      0.00000      3.47664         0.012981     -0.012981     -0.038323
      5.50010      0.00000      6.95327         0.087268     -0.087268     -0.046558
      5.50010      2.75005      0.00000        -0.032585      0.000000      0.071581
      5.50010      2.75005      3.47664        -0.003848      0.000000     -0.024298
      5.50010      2.75005      6.95327         0.044185      0.000000     -0.039487
      5.50010      5.50010      0.00000         0.066810      0.066810      0.068785
      5.50010      5.50010      3.47664         0.012981      0.012981     -0.038323
      5.50010      5.50010      6.95327         0.087268      0.087268     -0.046558
      1.37502      1.37502      1.73832        -0.022745     -0.022745      0.105285
      1.37502      1.37502      5.21496         0.045602      0.045602     -0.025703
      1.37502      1.37502      8.69159         0.253033      0.253033     -0.011605
      1.37502      4.12507      1.73832        -0.022745      0.022745      0.105285
      1.37502      4.12507      5.21496         0.045602     -0.045602     -0.025703
      1.37502      4.12507      8.69159         0.253033     -0.253033     -0.011605
      1.37502      6.87512      1.73832         0.059814      0.000000     -0.030597
      1.37502      6.87512      5.21496        -0.037237      0.000000     -0.061795
      1.37502      6.87512      8.69159        -0.032499      0.000000     -0.002671
      4.12507      1.37502      1.73832         0.022745     -0.022745      0.105285
      4.12507      1.37502      5.21496        -0.045602      0.045602     -0.025703
      4.12507      1.37502      8.69159        -0.253033      0.253033     -0.011605
      4.12507      4.12507      1.73832         0.022745      0.022745      0.105285
      4.12507      4.12507      5.21496        -0.045602     -0.045602     -0.025703
      4.12507      4.12507      8.69159        -0.253033     -0.253033     -0.011605
      4.12507      6.87512      1.73832        -0.059814      0.000000     -0.030597
      4.12507      6.87512      5.21496         0.037237      0.000000     -0.061795
      4.12507      6.87512      8.69159         0.032499      0.000000     -0.002671
      6.87512      1.37502      1.73832        -0.000000      0.059814     -0.030597
      6.87512      1.37502      5.21496        -0.000000     -0.037237     -0.061795
      6.87512      1.37502      8.69159         0.000000     -0.032499     -0.002671
      6.87512      4.12507      1.73832         0.000000     -0.059814     -0.030597
      6.87512      4.12507      5.21496        -0.000000      0.037237     -0.061795
      6.87512      4.12507      8.69159         0.000000      0.032499     -0.002671
      6.87512      6.87512      1.73832        -0.000000      0.000000      0.005855
      6.87512      6.87512      5.21496        -0.000000      0.000000     -0.051752
      6.87512      6.87512      8.69159        -0.000000      0.000000      0.078387
 -----------------------------------------------------------------------------------
    total drift:                               -0.000000     -0.000000      0.000014


--------------------------------------------------------------------------------------------------------



  FREE ENERGIE OF THE ION-ELECTRON SYSTEM (eV)
  ---------------------------------------------------
  free  energy   TOTEN  =      -356.28171258 eV

  energy  without entropy=     -356.28708517  energy(sigma->0) =     -356.28350344
 


--------------------------------------------------------------------------------------------------------


    POTLOK:  cpu time    0.8927: real time    0.8927


--------------------------------------------------------------------------------------------------------


     LOOP+:  cpu time 1255.3993: real time 1281.4285
    4ORBIT:  cpu time    0.0000: real time    0.0000
 


 total charge     
 
# of ion       s       p       d       tot
------------------------------------------
    1        0.405   0.428   0.000   0.833
    2        0.405   0.427   0.000   0.832
    3        0.405   0.429   0.000   0.834
    4        0.405   0.429   0.000   0.833
    5        0.405   0.427   0.000   0.832
    6        0.405   0.430   0.000   0.835
    7        0.405   0.428   0.000   0.833
    8        0.405   0.427   0.000   0.832
    9        0.405   0.430   0.000   0.834
   10        0.405   0.428   0.000   0.833
   11        0.405   0.427   0.000   0.832
   12        0.405   0.429   0.000   0.833
   13        0.405   0.424   0.000   0.829
   14        0.405   0.427   0.000   0.832
   15        0.405   0.424   0.000   0.829
   16        0.405   0.428   0.000   0.832
   17        0.405   0.427   0.000   0.832
   18        0.405   0.429   0.000   0.834
   19        0.405   0.428   0.000   0.833
   20        0.405   0.427   0.000   0.832
   21        0.405   0.429   0.000   0.834
   22        0.405   0.428   0.000   0.833
   23        0.405   0.427   0.000   0.832
   24        0.405   0.430   0.000   0.835
   25        0.405   0.427   0.000   0.832
   26        0.405   0.427   0.000   0.832
   27        0.405   0.429   0.000   0.834
   28        0.334   0.351   5.128   5.813
   29        0.332   0.352   5.125   5.809
   30        0.335   0.354   5.123   5.811
   31        0.334   0.350   5.136   5.820
   32        0.332   0.352   5.131   5.814
   33        0.335   0.353   5.129   5.818
   34        0.334   0.351   5.138   5.823
   35        0.335   0.351   5.128   5.814
   36        0.332   0.355   5.100   5.786
   37        0.334   0.349   5.141   5.825
   38        0.332   0.351   5.136   5.819
   39        0.335   0.353   5.128   5.817
   40        0.334   0.349   5.145   5.829
   41        0.332   0.351   5.155   5.839
   42        0.336   0.353   5.128   5.817
   43        0.334   0.351   5.145   5.829
   44        0.335   0.350   5.134   5.819
   45        0.332   0.355   5.104   5.791
   46        0.334   0.353   5.126   5.812
   47        0.334   0.349   5.139   5.822
   48        0.332   0.355   5.169   5.856
   49        0.334   0.352   5.127   5.813
   50        0.334   0.349   5.143   5.826
   51        0.332   0.355   5.171   5.858
   52        0.334   0.348   5.141   5.823
   53        0.335   0.353   5.133   5.821
   54        0.329   0.354   5.140   5.823
--------------------------------------------------
tot         19.939  21.049 138.642 179.630
 


 magnetization (x)
 
# of ion       s       p       d       tot
------------------------------------------
    1       -0.005  -0.009   0.000  -0.015
    2        0.000   0.000   0.000   0.000
    3        0.016   0.029   0.000   0.045
    4       -0.011  -0.020   0.000  -0.030
    5       -0.000   0.001   0.000   0.001
    6        0.011   0.019   0.000   0.030
    7       -0.005  -0.009   0.000  -0.015
    8        0.000  -0.000   0.000  -0.000
    9        0.016   0.029   0.000   0.046
   10       -0.011  -0.020   0.000  -0.032
   11        0.000   0.000   0.000   0.000
   12        0.010   0.019   0.000   0.029
   13       -0.020  -0.036   0.000  -0.055
   14       -0.000  -0.002   0.000  -0.002
   15        0.002   0.003   0.000   0.005
   16       -0.011  -0.021   0.000  -0.032
   17        0.000   0.000   0.000   0.001
   18        0.010   0.020   0.000   0.030
   19       -0.005  -0.009   0.000  -0.015
   20        0.000  -0.000   0.000   0.000
   21        0.016   0.030   0.000   0.046
   22       -0.011  -0.021   0.000  -0.032
   23       -0.000   0.001   0.000   0.001
   24        0.011   0.021   0.000   0.031
   25       -0.005  -0.010   0.000  -0.016
   26        0.000   0.000   0.000   0.000
   27        0.016   0.030   0.000   0.046
   28        0.018   0.018   2.368   2.404
   29       -0.014  -0.018  -2.266  -2.298
   30        0.021   0.015   2.444   2.480
   31        0.018   0.018   2.350   2.386
   32       -0.014  -0.018  -2.256  -2.288
   33        0.020   0.016   2.445   2.481
   34        0.012   0.019   2.264   2.295
   35       -0.019  -0.018  -2.397  -2.434
   36       -0.023  -0.021  -2.206  -2.249
   37        0.018   0.018   2.345   2.381
   38       -0.014  -0.018  -2.253  -2.284
   39        0.020   0.016   2.444   2.480
   40        0.018   0.018   2.340   2.375
   41       -0.013  -0.018  -2.224  -2.255
   42        0.021   0.015   2.441   2.477
   43        0.012   0.018   2.250   2.281
   44       -0.019  -0.018  -2.393  -2.431
   45       -0.023  -0.021  -2.202  -2.245
   46        0.014   0.022   2.269   2.305
   47       -0.019  -0.017  -2.392  -2.427
   48       -0.025  -0.024  -2.273  -2.322
   49        0.014   0.021   2.260   2.294
   50       -0.019  -0.016  -2.386  -2.421
   51       -0.025  -0.024  -2.271  -2.319
   52        0.017   0.011   2.290   2.318
   53       -0.015  -0.026  -2.334  -2.374
   54       -0.003   0.002  -2.292  -2.293
--------------------------------------------------
tot          0.002   0.013  -1.632  -1.617
 

 total amount of memory used by VASP MPI-rank0   590432. kBytes
=======================================================================

   base      :      30000. kBytes
   nonl-proj :      19946. kBytes
   fftplans  :      31580. kBytes
   grid      :      21385. kBytes
   one-center:        435. kBytes
   wavefun   :     487086. kBytes
 
  
  
 General timing and accounting informations for this job:
 ========================================================
  
                  Total CPU time used (sec):     1277.222
                            User time (sec):     1257.387
                          System time (sec):       19.836
                         Elapsed time (sec):     1304.823
  
                   Maximum memory used (kb):      740932.
                   Average memory used (kb):           0.
  
                          Minor page faults:       503070
                          Major page faults:           18
                 Voluntary context switches:         2844
