 vasp.5.4.4.18Apr17-6-g9f103f2a35 (build Dec 20 2018 12:05:58) complex          
  
 executed on             LinuxIFC date 2019.06.20  19:53:52
 running on   32 total cores
 distrk:  each k-point on    8 cores,    4 groups
 distr:  one band on NCORES_PER_BAND=   4 cores,    2 groups


--------------------------------------------------------------------------------------------------------


 INCAR:
 POTCAR:    PAW_PBE Al 04Jan2001                  
 POTCAR:    PAW_PBE Mn 06Sep2000                  

 ----------------------------------------------------------------------------- 
|                                                                             |
|           W    W    AA    RRRRR   N    N  II  N    N   GGGG   !!!           |
|           W    W   A  A   R    R  NN   N  II  NN   N  G    G  !!!           |
|           W    W  A    A  R    R  N N  N  II  N N  N  G       !!!           |
|           W WW W  AAAAAA  RRRRR   N  N N  II  N  N N  G  GGG   !            |
|           WW  WW  A    A  R   R   N   NN  II  N   NN  G    G                |
|           W    W  A    A  R    R  N    N  II  N    N   GGGG   !!!           |
|                                                                             |
|      You have enabled k-point parallelism (KPAR>1).                         |
|      This developmental code was originally  written by Paul Kent at ORNL,  |
|      and carefully double checked in Vienna.                                |
|      GW as well as linear response parallelism added by Martijn Marsman     |
|      and Georg Kresse.                                                      |
|      Carefully verify results versus KPAR=1.                                |
|      Report problems to Paul Kent and Vienna.                               |
|                                                                             |
 ----------------------------------------------------------------------------- 

 POTCAR:    PAW_PBE Al 04Jan2001                  
   VRHFIN =Al: s2p1                                                             
   LEXCH  = PE                                                                  
   EATOM  =    53.5387 eV,    3.9350 Ry                                         
                                                                                
   TITEL  = PAW_PBE Al 04Jan2001                                                
   LULTRA =        F    use ultrasoft PP ?                                      
   IUNSCR =        1    unscreen: 0-lin 1-nonlin 2-no                           
   RPACOR =    1.500    partial core radius                                     
   POMASS =   26.981; ZVAL   =    3.000    mass and valenz                      
   RCORE  =    1.900    outmost cutoff radius                                   
   RWIGS  =    2.650; RWIGS  =    1.402    wigner-seitz radius (au A)           
   ENMAX  =  240.300; ENMIN  =  180.225 eV                                      
   ICORE  =        2    local potential                                         
   LCOR   =        T    correct aug charges                                     
   LPAW   =        T    paw PP                                                  
   EAUG   =  291.052                                                            
   DEXC   =    0.000                                                            
   RMAX   =    1.939    core radius for proj-oper                               
   RAUG   =    1.300    factor for augmentation sphere                          
   RDEP   =    1.966    radius for radial grids                                 
   RDEPT  =    1.856    core radius for aug-charge                              
                                                                                
   Atomic configuration                                                         
    6 entries                                                                   
     n  l   j            E        occ.                                          
     1  0  0.50     -1511.1048   2.0000                                         
     2  0  0.50      -108.1629   2.0000                                         
     2  1  1.50       -69.6402   6.0000                                         
     3  0  0.50        -7.7528   2.0000                                         
     3  1  1.50        -2.7121   1.0000                                         
     3  2  2.50        -2.7212   0.0000                                         
   Description                                                                  
     l       E           TYP  RCUT    TYP  RCUT                                 
     0     -7.7528455     23  1.900                                             
     0     -3.3096929     23  1.900                                             
     1     -2.7120682     23  1.900                                             
     1     13.6058260     23  1.900                                             
     2     -2.7211652      7  1.900                                             
  local pseudopotential read in
  partial core-charges read in
  partial kinetic energy density read in
  atomic valenz-charges read in
  non local Contribution for L=           0  read in
    real space projection operators read in
  non local Contribution for L=           0  read in
    real space projection operators read in
  non local Contribution for L=           1  read in
    real space projection operators read in
  non local Contribution for L=           1  read in
    real space projection operators read in
    PAW grid and wavefunctions read in
 
   number of l-projection  operators is LMAX  =           4
   number of lm-projection operators is LMMAX =           8
 
 POTCAR:    PAW_PBE Mn 06Sep2000                  
   VRHFIN =Mn: d6 s1                                                            
   LEXCH  = PE                                                                  
   EATOM  =   416.7541 eV,   30.6306 Ry                                         
                                                                                
   TITEL  = PAW_PBE Mn 06Sep2000                                                
   LULTRA =        F    use ultrasoft PP ?                                      
   IUNSCR =        1    unscreen: 0-lin 1-nonlin 2-no                           
   RPACOR =    2.000    partial core radius                                     
   POMASS =   54.938; ZVAL   =    7.000    mass and valenz                      
   RCORE  =    2.300    outmost cutoff radius                                   
   RWIGS  =    2.500; RWIGS  =    1.323    wigner-seitz radius (au A)           
   ENMAX  =  269.864; ENMIN  =  202.398 eV                                      
   RCLOC  =    1.725    cutoff for local pot                                    
   LCOR   =        T    correct aug charges                                     
   LPAW   =        T    paw PP                                                  
   EAUG   =  500.711                                                            
   DEXC   =    0.000                                                            
   RMAX   =    2.343    core radius for proj-oper                               
   RAUG   =    1.300    factor for augmentation sphere                          
   RDEP   =    2.338    radius for radial grids                                 
   RDEPT  =    1.911    core radius for aug-charge                              
                                                                                
   Atomic configuration                                                         
    9 entries                                                                   
     n  l   j            E        occ.                                          
     1  0  0.50     -6424.8288   2.0000                                         
     2  0  0.50      -739.1154   2.0000                                         
     2  1  1.50      -625.3949   6.0000                                         
     3  0  0.50       -81.6100   2.0000                                         
     3  1  1.50       -50.4667   6.0000                                         
     3  2  2.50        -3.3745   6.0000                                         
     4  0  0.50        -4.1331   1.0000                                         
     4  1  0.50        -4.0817   0.0000                                         
     4  3  2.50        -1.3606   0.0000                                         
   Description                                                                  
     l       E           TYP  RCUT    TYP  RCUT                                 
     2     -3.3744664     23  2.300                                             
     2     -4.7350490     23  2.300                                             
     0     -4.1331408     23  2.300                                             
     0      7.6656614     23  2.300                                             
     1     -2.7211652     23  2.300                                             
     1     20.4087390     23  2.300                                             
  local pseudopotential read in
  partial core-charges read in
  partial kinetic energy density read in
  atomic valenz-charges read in
  non local Contribution for L=           2  read in
    real space projection operators read in
  non local Contribution for L=           2  read in
    real space projection operators read in
  non local Contribution for L=           0  read in
    real space projection operators read in
  non local Contribution for L=           0  read in
    real space projection operators read in
  non local Contribution for L=           1  read in
    real space projection operators read in
  non local Contribution for L=           1  read in
    real space projection operators read in
    PAW grid and wavefunctions read in
 
   number of l-projection  operators is LMAX  =           6
   number of lm-projection operators is LMMAX =          18
 

 ----------------------------------------------------------------------------- 
|                                                                             |
|  ADVICE TO THIS USER RUNNING 'VASP/VAMP'   (HEAR YOUR MASTER'S VOICE ...):  |
|                                                                             |
|      You have a (more or less) 'large supercell' and for larger cells       |
|      it might be more efficient to use real space projection opertators     |
|      So try LREAL= Auto  in the INCAR   file.                               |
|      Mind:          For very  accurate calculation you might also keep the  |
|      reciprocal projection scheme          (i.e. LREAL=.FALSE.)             |
|                                                                             |
 ----------------------------------------------------------------------------- 

  PAW_PBE Al 04Jan2001                  :
 energy of atom  1       EATOM=  -53.5387
 kinetic energy error for atom=    0.0005 (will be added to EATOM!!)
  PAW_PBE Mn 06Sep2000                  :
 energy of atom  2       EATOM= -416.7541
 kinetic energy error for atom=    0.0080 (will be added to EATOM!!)
 
 
 POSCAR: NewRef: 27, @ ['Mn', array([1.37502469, 
  positions in cartesian coordinates
  velocities in cartesian coordinates
  No initial velocities read in
 exchange correlation table for  LEXCH =        8
   RHO(1)=    0.500       N(1)  =     2000
   RHO(2)=  100.500       N(2)  =     4000
 


--------------------------------------------------------------------------------------------------------


 ion  position               nearest neighbor table
   1  0.000  0.000  0.000-  28 2.61  30 2.61  34 2.61  36 2.61  46 2.61  48 2.61  52 2.61  54 2.61
                             4 2.75  10 2.75   7 2.75  19 2.75
   2  0.000  0.000  0.333-  28 2.61  34 2.61  46 2.61  52 2.61  29 2.61  47 2.61  35 2.61  53 2.61
                             5 2.75  11 2.75   8 2.75  20 2.75
   3  0.000  0.000  0.667-  29 2.61  35 2.61  47 2.61  53 2.61  30 2.61  48 2.61  36 2.61  54 2.61
                             6 2.75  12 2.75   9 2.75  21 2.75
   4  0.000  0.333  0.000-  28 2.61  30 2.61  46 2.61  48 2.61  31 2.61  33 2.61  49 2.61  51 2.61
                            13 2.75   1 2.75   7 2.75  22 2.75
   5  0.000  0.333  0.333-  28 2.61  46 2.61  31 2.61  49 2.61  47 2.61  29 2.61  32 2.61  50 2.61
                            14 2.75   2 2.75   8 2.75  23 2.75
   6  0.000  0.333  0.667-  29 2.61  47 2.61  32 2.61  50 2.61  48 2.61  30 2.61  33 2.61  51 2.61
                            15 2.75   3 2.75   9 2.75  24 2.75
   7  0.000  0.667  0.000-  31 2.61  33 2.61  49 2.61  51 2.61  34 2.61  36 2.61  52 2.61  54 2.61
                             4 2.75  16 2.75   1 2.75  25 2.75
   8  0.000  0.667  0.333-  31 2.61  49 2.61  34 2.61  52 2.61  50 2.61  32 2.61  35 2.61  53 2.61
                             5 2.75  17 2.75   2 2.75  26 2.75
   9  0.000  0.667  0.667-  32 2.61  50 2.61  35 2.61  53 2.61  51 2.61  33 2.61  36 2.61  54 2.61
                             6 2.75  18 2.75   3 2.75  27 2.75
  10  0.333  0.000  0.000-  28 2.61  30 2.61  34 2.61  36 2.61  37 2.61  39 2.61  43 2.61  45 2.61
                            19 2.75   1 2.75  13 2.75  16 2.75
  11  0.333  0.000  0.333-  28 2.61  34 2.61  37 2.61  43 2.61  29 2.61  35 2.61  38 2.61  44 2.61
                            20 2.75   2 2.75  14 2.75  17 2.75
  12  0.333  0.000  0.667-  29 2.61  35 2.61  38 2.61  44 2.61  30 2.61  36 2.61  39 2.61  45 2.61
                            21 2.75   3 2.75  15 2.75  18 2.75
  13  0.333  0.333  0.000-  28 2.61  30 2.61  31 2.61  33 2.61  37 2.61  39 2.61  40 2.61  42 2.61
                             4 2.75  10 2.75  16 2.75  22 2.75
  14  0.333  0.333  0.333-  28 2.61  31 2.61  37 2.61  29 2.61  40 2.61  38 2.61  32 2.61  41 2.61
                             5 2.75  11 2.75  17 2.75  23 2.75
  15  0.333  0.333  0.667-  29 2.61  32 2.61  38 2.61  30 2.61  41 2.61  39 2.61  33 2.61  42 2.61
                             6 2.75  12 2.75  18 2.75  24 2.75
  16  0.333  0.667  0.000-  31 2.61  33 2.61  34 2.61  36 2.61  40 2.61  42 2.61  43 2.61  45 2.61
                            25 2.75   7 2.75  13 2.75  10 2.75
  17  0.333  0.667  0.333-  31 2.61  34 2.61  40 2.61  32 2.61  43 2.61  41 2.61  35 2.61  44 2.61
                            26 2.75   8 2.75  14 2.75  11 2.75
  18  0.333  0.667  0.667-  32 2.61  35 2.61  41 2.61  33 2.61  44 2.61  42 2.61  36 2.61  45 2.61
                            27 2.75   9 2.75  15 2.75  12 2.75
  19  0.667  0.000  0.000-  37 2.61  39 2.61  43 2.61  45 2.61  46 2.61  48 2.61  52 2.61  54 2.61
                            10 2.75  22 2.75   1 2.75  25 2.75
  20  0.667  0.000  0.333-  37 2.61  43 2.61  46 2.61  52 2.61  38 2.61  44 2.61  47 2.61  53 2.61
                            11 2.75  23 2.75   2 2.75  26 2.75
  21  0.667  0.000  0.667-  38 2.61  44 2.61  47 2.61  53 2.61  39 2.61  45 2.61  48 2.61  54 2.61
                            12 2.75  24 2.75   3 2.75  27 2.75
  22  0.667  0.333  0.000-  37 2.61  39 2.61  40 2.61  42 2.61  46 2.61  48 2.61  49 2.61  51 2.61
                            25 2.75  13 2.75  19 2.75   4 2.75
  23  0.667  0.333  0.333-  37 2.61  40 2.61  46 2.61  38 2.61  49 2.61  47 2.61  41 2.61  50 2.61
                            26 2.75  14 2.75  20 2.75   5 2.75
  24  0.667  0.333  0.667-  38 2.61  41 2.61  47 2.61  39 2.61  50 2.61  48 2.61  42 2.61  51 2.61
                            27 2.75  15 2.75  21 2.75   6 2.75
  25  0.667  0.667  0.000-  40 2.61  42 2.61  43 2.61  45 2.61  49 2.61  51 2.61  52 2.61  54 2.61
                            16 2.75  22 2.75  19 2.75   7 2.75
  26  0.667  0.667  0.333-  40 2.61  43 2.61  49 2.61  41 2.61  52 2.61  50 2.61  44 2.61  53 2.61
                            17 2.75  23 2.75  20 2.75   8 2.75
  27  0.667  0.667  0.667-  41 2.61  44 2.61  50 2.61  42 2.61  53 2.61  51 2.61  45 2.61  54 2.61
                            18 2.75  24 2.75  21 2.75   9 2.75
  28  0.167  0.167  0.167-  14 2.61  11 2.61   5 2.61  13 2.61   2 2.61  10 2.61   4 2.61   1 2.61
                            31 2.75  37 2.75  34 2.75  46 2.75
  29  0.167  0.167  0.500-  15 2.61  12 2.61   6 2.61  14 2.61   3 2.61  11 2.61   5 2.61   2 2.61
                            32 2.75  38 2.75  35 2.75  47 2.75
  30  0.167  0.167  0.833-  13 2.61  15 2.61  10 2.61  12 2.61   4 2.61   6 2.61   1 2.61   3 2.61
                            33 2.75  39 2.75  36 2.75  48 2.75
  31  0.167  0.500  0.167-  17 2.61  14 2.61   8 2.61  16 2.61   5 2.61  13 2.61   7 2.61   4 2.61
                            28 2.75  34 2.75  40 2.75  49 2.75
  32  0.167  0.500  0.500-  18 2.61  15 2.61   9 2.61  17 2.61   6 2.61  14 2.61   8 2.61   5 2.61
                            29 2.75  35 2.75  41 2.75  50 2.75
  33  0.167  0.500  0.833-  16 2.61  18 2.61  13 2.61  15 2.61   7 2.61   9 2.61   4 2.61   6 2.61
                            30 2.75  36 2.75  42 2.75  51 2.75
  34  0.167  0.833  0.167-  11 2.61  17 2.61   2 2.61   8 2.61  16 2.61  10 2.61   7 2.61   1 2.61
                            31 2.75  43 2.75  28 2.75  52 2.75
  35  0.167  0.833  0.500-  12 2.61  18 2.61   3 2.61   9 2.61  17 2.61  11 2.61   8 2.61   2 2.61
                            32 2.75  44 2.75  29 2.75  53 2.75
  36  0.167  0.833  0.833-  10 2.61  12 2.61  16 2.61  18 2.61   1 2.61   3 2.61   7 2.61   9 2.61
                            33 2.75  45 2.75  30 2.75  54 2.75
  37  0.500  0.167  0.167-  23 2.61  20 2.61  14 2.61  22 2.61  11 2.61  19 2.61  13 2.61  10 2.61
                            28 2.75  40 2.75  46 2.75  43 2.75
  38  0.500  0.167  0.500-  24 2.61  21 2.61  15 2.61  23 2.61  12 2.61  20 2.61  14 2.61  11 2.61
                            29 2.75  41 2.75  47 2.75  44 2.75
  39  0.500  0.167  0.833-  22 2.61  24 2.61  19 2.61  21 2.61  13 2.61  15 2.61  10 2.61  12 2.61
                            30 2.75  42 2.75  48 2.75  45 2.75
  40  0.500  0.500  0.167-  26 2.61  23 2.61  17 2.61  25 2.61  14 2.61  22 2.61  16 2.61  13 2.61
                            31 2.75  37 2.75  43 2.75  49 2.75
  41  0.500  0.500  0.500-  27 2.61  24 2.61  18 2.61  26 2.61  15 2.61  23 2.61  17 2.61  14 2.61
                            32 2.75  38 2.75  44 2.75  50 2.75
  42  0.500  0.500  0.833-  25 2.61  27 2.61  22 2.61  24 2.61  16 2.61  18 2.61  13 2.61  15 2.61
                            33 2.75  39 2.75  45 2.75  51 2.75
  43  0.500  0.833  0.167-  20 2.61  26 2.61  11 2.61  17 2.61  25 2.61  19 2.61  16 2.61  10 2.61
                            34 2.75  40 2.75  52 2.75  37 2.75
  44  0.500  0.833  0.500-  21 2.61  27 2.61  12 2.61  18 2.61  26 2.61  20 2.61  17 2.61  11 2.61
                            35 2.75  41 2.75  53 2.75  38 2.75
  45  0.500  0.833  0.833-  19 2.61  21 2.61  25 2.61  27 2.61  10 2.61  12 2.61  16 2.61  18 2.61
                            36 2.75  42 2.75  54 2.75  39 2.75
  46  0.833  0.167  0.167-   5 2.61  23 2.61  20 2.61   2 2.61  22 2.61   4 2.61  19 2.61   1 2.61
                            37 2.75  49 2.75  28 2.75  52 2.75
  47  0.833  0.167  0.500-   6 2.61  24 2.61  21 2.61   3 2.61  23 2.61   5 2.61  20 2.61   2 2.61
                            38 2.75  50 2.75  29 2.75  53 2.75
  48  0.833  0.167  0.833-   4 2.61   6 2.61  22 2.61  24 2.61  19 2.61  21 2.61   1 2.61   3 2.61
                            39 2.75  51 2.75  30 2.75  54 2.75
  49  0.833  0.500  0.167-   8 2.61  26 2.61  23 2.61   5 2.61  25 2.61   7 2.61  22 2.61   4 2.61
                            40 2.75  46 2.75  52 2.75  31 2.75
  50  0.833  0.500  0.500-   9 2.61  27 2.61  24 2.61   6 2.61  26 2.61   8 2.61  23 2.61   5 2.61
                            41 2.75  47 2.75  53 2.75  32 2.75
  51  0.833  0.500  0.833-   7 2.61   9 2.61  25 2.61  27 2.61  22 2.61  24 2.61   4 2.61   6 2.61
                            42 2.75  48 2.75  54 2.75  33 2.75
  52  0.833  0.833  0.167-   2 2.61   8 2.61  20 2.61  26 2.61  19 2.61   7 2.61  25 2.61   1 2.61
                            43 2.75  49 2.75  46 2.75  34 2.75
  53  0.833  0.833  0.500-   3 2.61   9 2.61  21 2.61  27 2.61  20 2.61   8 2.61  26 2.61   2 2.61
                            44 2.75  50 2.75  47 2.75  35 2.75
  54  0.833  0.833  0.833-   1 2.61   3 2.61   7 2.61   9 2.61  19 2.61  21 2.61  25 2.61  27 2.61
                            45 2.75  51 2.75  48 2.75  36 2.75
 
  LATTYP: Found a simple tetragonal cell.
 ALAT       =     8.2501481662
 C/A-ratio  =     1.2642089792
  
  Lattice vectors:
  
 A1 = (   8.2501481662,   0.0000000000,   0.0000000000)
 A2 = (   0.0000000000,   8.2501481662,   0.0000000000)
 A3 = (   0.0000000000,   0.0000000000,  10.4299113916)


Analysis of symmetry for initial positions (statically):
=====================================================================
 Subroutine PRICEL returns following result:
 
  LATTYP: Found a simple tetragonal cell.
 ALAT       =     2.7500493888
 C/A-ratio  =     1.2642089792
  
  Lattice vectors:
  
 A1 = (   2.7500493888,   0.0000000000,   0.0000000000)
 A2 = (   0.0000000000,   2.7500493888,   0.0000000000)
 A3 = (   0.0000000000,   0.0000000000,   3.4766371306)
 
  27 primitive cells build up your supercell.
 

 Routine SETGRP: Setting up the symmetry group for a 
 simple tetragonal supercell.


 Subroutine GETGRP returns: Found 16 space group operations
 (whereof 16 operations were pure point group operations)
 out of a pool of 16 trial point group operations.


The static configuration has the point symmetry D_4h.


Analysis of symmetry for dynamics (positions and initial velocities):
=====================================================================
 Subroutine PRICEL returns following result:
 
  LATTYP: Found a simple tetragonal cell.
 ALAT       =     2.7500493888
 C/A-ratio  =     1.2642089792
  
  Lattice vectors:
  
 A1 = (   2.7500493888,   0.0000000000,   0.0000000000)
 A2 = (   0.0000000000,   2.7500493888,   0.0000000000)
 A3 = (   0.0000000000,   0.0000000000,   3.4766371306)
 
  27 primitive cells build up your supercell.
 

 Routine SETGRP: Setting up the symmetry group for a 
 simple tetragonal supercell.


 Subroutine GETGRP returns: Found 16 space group operations
 (whereof 16 operations were pure point group operations)
 out of a pool of 16 trial point group operations.


The dynamic configuration has the point symmetry D_4h.


Analysis of structural, dynamic, and magnetic symmetry:
=====================================================================
 Subroutine PRICEL returns following result:
 
  LATTYP: Found a simple orthorhombic cell.
 ALAT       =     2.7500493888
 B/A-ratio  =     2.9999999999
 C/A-ratio  =     3.7926269376
  
  Lattice vectors:
  
 A1 = (   0.0000000000,  -2.7500493888,   0.0000000000)
 A2 = (  -8.2501481662,   0.0000000000,   0.0000000000)
 A3 = (   0.0000000000,   0.0000000000, -10.4299113916)
 
   3 primitive cells build up your supercell.
 

 Routine SETGRP: Setting up the symmetry group for a 
 simple tetragonal supercell.


 Subroutine GETGRP returns: Found  4 space group operations
 (whereof  2 operations were pure point group operations)
 out of a pool of 16 trial point group operations.


The magnetic configuration has the point symmetry C_1h.
 The point group associated with its full space group is C_2v.


 Subroutine INISYM returns: Found  4 space group operations
 (whereof  2 operations are pure point group operations),
 and found     3 'primitive' translations

 
 
 KPOINTS: automatic KPOINTS                       

Automatic generation of k-mesh.
 generate k-points for:    5    5    4
Space group operators:
 irot       det(A)        alpha          n_x          n_y          n_z        tau_x        tau_y        tau_z
    1     1.000000     0.000001     1.000000     0.000000     0.000000     0.000000     0.000000     0.000000
    2    -1.000000   180.000000     0.000000     1.000000     0.000000     0.000000     0.000000     0.000000
    3     1.000000   180.000000     0.000000     0.000000     1.000000    -0.333333     0.000000     0.000000
    4    -1.000000   180.000000     1.000000     0.000000     0.000000    -0.333333     0.000000     0.000000
 
 Subroutine IBZKPT returns following result:
 ===========================================
 
 Found     27 irreducible k-points:
 
 Following reciprocal coordinates:
            Coordinates               Weight
  0.000000  0.000000  0.000000      1.000000
  0.200000  0.000000  0.000000      2.000000
  0.400000  0.000000  0.000000      2.000000
  0.000000  0.200000  0.000000      2.000000
  0.200000  0.200000  0.000000      4.000000
  0.400000  0.200000  0.000000      4.000000
  0.000000  0.400000  0.000000      2.000000
  0.200000  0.400000  0.000000      4.000000
  0.400000  0.400000  0.000000      4.000000
  0.000000  0.000000  0.250000      2.000000
  0.200000  0.000000  0.250000      4.000000
  0.400000  0.000000  0.250000      4.000000
  0.000000  0.200000  0.250000      4.000000
  0.200000  0.200000  0.250000      8.000000
  0.400000  0.200000  0.250000      8.000000
  0.000000  0.400000  0.250000      4.000000
  0.200000  0.400000  0.250000      8.000000
  0.400000  0.400000  0.250000      8.000000
  0.000000  0.000000  0.500000      1.000000
  0.200000  0.000000  0.500000      2.000000
  0.400000  0.000000  0.500000      2.000000
  0.000000  0.200000  0.500000      2.000000
  0.200000  0.200000  0.500000      4.000000
  0.400000  0.200000  0.500000      4.000000
  0.000000  0.400000  0.500000      2.000000
  0.200000  0.400000  0.500000      4.000000
  0.400000  0.400000  0.500000      4.000000
 
 Following cartesian coordinates:
            Coordinates               Weight
  0.000000  0.000000  0.000000      1.000000
  0.024242  0.000000  0.000000      2.000000
  0.048484  0.000000  0.000000      2.000000
  0.000000  0.024242  0.000000      2.000000
  0.024242  0.024242  0.000000      4.000000
  0.048484  0.024242  0.000000      4.000000
  0.000000  0.048484  0.000000      2.000000
  0.024242  0.048484  0.000000      4.000000
  0.048484  0.048484  0.000000      4.000000
  0.000000  0.000000  0.023970      2.000000
  0.024242  0.000000  0.023970      4.000000
  0.048484  0.000000  0.023970      4.000000
  0.000000  0.024242  0.023970      4.000000
  0.024242  0.024242  0.023970      8.000000
  0.048484  0.024242  0.023970      8.000000
  0.000000  0.048484  0.023970      4.000000
  0.024242  0.048484  0.023970      8.000000
  0.048484  0.048484  0.023970      8.000000
  0.000000  0.000000  0.047939      1.000000
  0.024242  0.000000  0.047939      2.000000
  0.048484  0.000000  0.047939      2.000000
  0.000000  0.024242  0.047939      2.000000
  0.024242  0.024242  0.047939      4.000000
  0.048484  0.024242  0.047939      4.000000
  0.000000  0.048484  0.047939      2.000000
  0.024242  0.048484  0.047939      4.000000
  0.048484  0.048484  0.047939      4.000000
 


--------------------------------------------------------------------------------------------------------




 Dimension of arrays:
   k-points           NKPTS =     27   k-points in BZ     NKDIM =     27   number of bands    NBANDS=    168
   number of dos      NEDOS =    301   number of ions     NIONS =     54
   non local maximal  LDIM  =      6   non local SUM 2l+1 LMDIM =     18
   total plane-waves  NPLWV = 204120
   max r-space proj   IRMAX =      1   max aug-charges    IRDMAX=  89713
   dimension x,y,z NGX =    54 NGY =   54 NGZ =   70
   dimension x,y,z NGXF=   108 NGYF=  108 NGZF=  140
   support grid    NGXF=   216 NGYF=  216 NGZF=  280
   ions per type =              27  27
   NGX,Y,Z   is equivalent  to a cutoff of  10.88, 10.88, 11.16 a.u.
   NGXF,Y,Z  is equivalent  to a cutoff of  21.76, 21.76, 22.32 a.u.

 SYSTEM =  AlMn_pv                                 
 POSCAR =  NewRef: 27, @ ['Mn', array([1.37502469, 

 Startparameter for this run:
   NWRITE =      2    write-flag & timer
   PREC   = accura    normal or accurate (medium, high low for compatibility)
   ISTART =      0    job   : 0-new  1-cont  2-samecut
   ICHARG =      2    charge: 1-file 2-atom 10-const
   ISPIN  =      2    spin polarized calculation?
   LNONCOLLINEAR =      F non collinear calculations
   LSORBIT =      F    spin-orbit coupling
   INIWAV =      1    electr: 0-lowe 1-rand  2-diag
   LASPH  =      F    aspherical Exc in radial PAW
   METAGGA=      F    non-selfconsistent MetaGGA calc.

 Electronic Relaxation 1
   ENCUT  =  404.8 eV  29.75 Ry    5.45 a.u.  13.53 13.53 17.11*2*pi/ulx,y,z
   ENINI  =  404.8     initial cutoff
   ENAUG  =  500.7 eV  augmentation charge cutoff
   NELM   =    100;   NELMIN=  4; NELMDL= -8     # of ELM steps 
   EDIFF  = 0.1E-06   stopping-criterion for ELM
   LREAL  =      F    real-space projection
   NLSPLINE    = F    spline interpolate recip. space projectors
   LCOMPAT=      F    compatible to vasp.4.4
   GGA_COMPAT  = T    GGA compatible to vasp.4.4-vasp.4.6
   LMAXPAW     = -100 max onsite density
   LMAXMIX     =    2 max onsite mixed and CHGCAR
   VOSKOWN=      0    Vosko Wilk Nusair interpolation
   ROPT   =    0.00000   0.00000
 Ionic relaxation
   EDIFFG = 0.1E-05   stopping-criterion for IOM
   NSW    =      0    number of steps for IOM
   NBLOCK =      1;   KBLOCK =      1    inner block; outer block 
   IBRION =     -1    ionic relax: 0-MD 1-quasi-New 2-CG
   NFREE  =      0    steps in history (QN), initial steepest desc. (CG)
   ISIF   =      2    stress and relaxation
   IWAVPR =     10    prediction:  0-non 1-charg 2-wave 3-comb
   ISYM   =      2    0-nonsym 1-usesym 2-fastsym
   LCORR  =      T    Harris-Foulkes like correction to forces

   POTIM  = 0.2000    time-step for ionic-motion
   TEIN   =    0.0    initial temperature
   TEBEG  =    0.0;   TEEND  =   0.0 temperature during run
   SMASS  =  -3.00    Nose mass-parameter (am)
   estimated Nose-frequenzy (Omega)   =  0.10E-29 period in steps =****** mass=  -0.156E-26a.u.
   SCALEE = 1.0000    scale energy and forces
   NPACO  =    256;   APACO  = 16.0  distance and # of slots for P.C.
   PSTRESS=    0.0 pullay stress

  Mass of Ions in am
   POMASS =  26.98 54.94
  Ionic Valenz
   ZVAL   =   3.00  7.00
  Atomic Wigner-Seitz radii
   RWIGS  =  -1.00 -1.00
  virtual crystal weights 
   VCA    =   1.00  1.00
   NELECT =     270.0000    total number of electrons
   NUPDOWN=      -1.0000    fix difference up-down

 DOS related values:
   EMIN   =  10.00;   EMAX   =-10.00  energy-range for DOS
   EFERMI =   0.00
   ISMEAR =     1;   SIGMA  =   0.20  broadening in eV -4-tet -1-fermi 0-gaus

 Electronic relaxation 2 (details)
   IALGO  =     58    algorithm
   LDIAG  =      T    sub-space diagonalisation (order eigenvalues)
   LSUBROT=      F    optimize rotation matrix (better conditioning)
   TURBO    =      0    0=normal 1=particle mesh
   IRESTART =      0    0=no restart 2=restart with 2 vectors
   NREBOOT  =      0    no. of reboots
   NMIN     =      0    reboot dimension
   EREF     =   0.00    reference energy to select bands
   IMIX   =      4    mixing-type and parameters
     AMIX     =   0.40;   BMIX     =  1.00
     AMIX_MAG =   1.60;   BMIX_MAG =  1.00
     AMIN     =   0.10
     WC   =   100.;   INIMIX=   1;  MIXPRE=   1;  MAXMIX= -45

 Intra band minimization:
   WEIMIN = 0.0000     energy-eigenvalue tresh-hold
   EBREAK =  0.15E-09  absolut break condition
   DEPER  =   0.30     relativ break condition  

   TIME   =   0.40     timestep for ELM

  volume/ion in A,a.u.               =      13.15        88.72
  Fermi-wavevector in a.u.,A,eV,Ry     =   1.186118  2.241439 19.141722  1.406877
  Thomas-Fermi vector in A             =   2.322298
 
 Write flags
   LWAVE        =      F    write WAVECAR
   LDOWNSAMPLE  =      F    k-point downsampling of WAVECAR
   LCHARG       =      F    write CHGCAR
   LVTOT        =      F    write LOCPOT, total local potential
   LVHAR        =      F    write LOCPOT, Hartree potential only
   LELF         =      F    write electronic localiz. function (ELF)
   LORBIT       =     10    0 simple, 1 ext, 2 COOP (PROOUT), +10 PAW based schemes


 Dipole corrections
   LMONO  =      F    monopole corrections only (constant potential shift)
   LDIPOL =      F    correct potential (dipole corrections)
   IDIPOL =      0    1-x, 2-y, 3-z, 4-all directions 
   EPSILON=  1.0000000 bulk dielectric constant

 Exchange correlation treatment:
   GGA     =    --    GGA type
   LEXCH   =     8    internal setting for exchange type
   VOSKOWN=      0    Vosko Wilk Nusair interpolation
   LHFCALC =     F    Hartree Fock is set to
   LHFONE  =     F    Hartree Fock one center treatment
   AEXX    =    0.0000 exact exchange contribution

 Linear response parameters
   LEPSILON=     F    determine dielectric tensor
   LRPA    =     F    only Hartree local field effects (RPA)
   LNABLA  =     F    use nabla operator in PAW spheres
   LVEL    =     F    velocity operator in full k-point grid
   LINTERFAST=   F  fast interpolation
   KINTER  =     0    interpolate to denser k-point grid
   CSHIFT  =0.1000    complex shift for real part using Kramers Kronig
   OMEGAMAX=  -1.0    maximum frequency
   DEG_THRESHOLD= 0.2000000E-02 threshold for treating states as degnerate
   RTIME   =   -0.100 relaxation time in fs
  (WPLASMAI=    0.000 imaginary part of plasma frequency in eV, 0.658/RTIME)
   DFIELD  = 0.0000000 0.0000000 0.0000000 field for delta impulse in time
 
 Orbital magnetization related:
   ORBITALMAG=     F  switch on orbital magnetization
   LCHIMAG   =     F  perturbation theory with respect to B field
   DQ        =  0.001000  dq finite difference perturbation B field
   LLRAUG    =     F  two centre corrections for induced B field



--------------------------------------------------------------------------------------------------------


 Static calculation
 charge density and potential will be updated during run
 spin polarized calculation
 Conjugate gradient for all bands (Freysoldt, et al. PRB 79, 241103 (2009))
 preconditioned conjugated gradient                                        
 perform sub-space diagonalisation
    before iterative eigenvector-optimisation
 modified Broyden-mixing scheme, WC =      100.0
 initial mixing is a Kerker type mixing with AMIX =  0.4000 and BMIX =      1.0000
 Hartree-type preconditioning will be used
 using additional bands           33
 reciprocal scheme for non local part
 use partial core corrections
 no Harris-corrections to forces 
 use gradient corrections 
 use of overlap-Matrix (Vanderbilt PP)
 Methfessel and Paxton  Order N= 1 SIGMA  =   0.20


--------------------------------------------------------------------------------------------------------


  energy-cutoff  :      404.80
  volume of cell :      709.91
      direct lattice vectors                 reciprocal lattice vectors
     8.250148166  0.000000000  0.000000000     0.121209944  0.000000000  0.000000000
     0.000000000  8.250148166  0.000000000     0.000000000  0.121209944  0.000000000
     0.000000000  0.000000000 10.429911392     0.000000000  0.000000000  0.095878092

  length of vectors
     8.250148166  8.250148166 10.429911392     0.121209944  0.121209944  0.095878092


 
 k-points in units of 2pi/SCALE and weight: automatic KPOINTS                       
   0.00000000  0.00000000  0.00000000       0.010
   0.02424199  0.00000000  0.00000000       0.020
   0.04848398  0.00000000  0.00000000       0.020
   0.00000000  0.02424199  0.00000000       0.020
   0.02424199  0.02424199  0.00000000       0.040
   0.04848398  0.02424199  0.00000000       0.040
   0.00000000  0.04848398  0.00000000       0.020
   0.02424199  0.04848398  0.00000000       0.040
   0.04848398  0.04848398  0.00000000       0.040
   0.00000000  0.00000000  0.02396952       0.020
   0.02424199  0.00000000  0.02396952       0.040
   0.04848398  0.00000000  0.02396952       0.040
   0.00000000  0.02424199  0.02396952       0.040
   0.02424199  0.02424199  0.02396952       0.080
   0.04848398  0.02424199  0.02396952       0.080
   0.00000000  0.04848398  0.02396952       0.040
   0.02424199  0.04848398  0.02396952       0.080
   0.04848398  0.04848398  0.02396952       0.080
   0.00000000  0.00000000  0.04793905       0.010
   0.02424199  0.00000000  0.04793905       0.020
   0.04848398  0.00000000  0.04793905       0.020
   0.00000000  0.02424199  0.04793905       0.020
   0.02424199  0.02424199  0.04793905       0.040
   0.04848398  0.02424199  0.04793905       0.040
   0.00000000  0.04848398  0.04793905       0.020
   0.02424199  0.04848398  0.04793905       0.040
   0.04848398  0.04848398  0.04793905       0.040
 
 k-points in reciprocal lattice and weights: automatic KPOINTS                       
   0.00000000  0.00000000  0.00000000       0.010
   0.20000000  0.00000000  0.00000000       0.020
   0.40000000  0.00000000  0.00000000       0.020
   0.00000000  0.20000000  0.00000000       0.020
   0.20000000  0.20000000  0.00000000       0.040
   0.40000000  0.20000000  0.00000000       0.040
   0.00000000  0.40000000  0.00000000       0.020
   0.20000000  0.40000000  0.00000000       0.040
   0.40000000  0.40000000  0.00000000       0.040
   0.00000000  0.00000000  0.25000000       0.020
   0.20000000  0.00000000  0.25000000       0.040
   0.40000000  0.00000000  0.25000000       0.040
   0.00000000  0.20000000  0.25000000       0.040
   0.20000000  0.20000000  0.25000000       0.080
   0.40000000  0.20000000  0.25000000       0.080
   0.00000000  0.40000000  0.25000000       0.040
   0.20000000  0.40000000  0.25000000       0.080
   0.40000000  0.40000000  0.25000000       0.080
   0.00000000  0.00000000  0.50000000       0.010
   0.20000000  0.00000000  0.50000000       0.020
   0.40000000  0.00000000  0.50000000       0.020
   0.00000000  0.20000000  0.50000000       0.020
   0.20000000  0.20000000  0.50000000       0.040
   0.40000000  0.20000000  0.50000000       0.040
   0.00000000  0.40000000  0.50000000       0.020
   0.20000000  0.40000000  0.50000000       0.040
   0.40000000  0.40000000  0.50000000       0.040
 
 position of ions in fractional coordinates (direct lattice) 
   0.00000000  0.00000000  0.00000000
   0.00000000  0.00000000  0.33333333
   0.00000000  0.00000000  0.66666667
   0.00000000  0.33333333  0.00000000
   0.00000000  0.33333333  0.33333333
   0.00000000  0.33333333  0.66666667
   0.00000000  0.66666667  0.00000000
   0.00000000  0.66666667  0.33333333
   0.00000000  0.66666667  0.66666667
   0.33333333  0.00000000  0.00000000
   0.33333333  0.00000000  0.33333333
   0.33333333  0.00000000  0.66666667
   0.33333333  0.33333333  0.00000000
   0.33333333  0.33333333  0.33333333
   0.33333333  0.33333333  0.66666667
   0.33333333  0.66666667  0.00000000
   0.33333333  0.66666667  0.33333333
   0.33333333  0.66666667  0.66666667
   0.66666667  0.00000000  0.00000000
   0.66666667  0.00000000  0.33333333
   0.66666667  0.00000000  0.66666667
   0.66666667  0.33333333  0.00000000
   0.66666667  0.33333333  0.33333333
   0.66666667  0.33333333  0.66666667
   0.66666667  0.66666667  0.00000000
   0.66666667  0.66666667  0.33333333
   0.66666667  0.66666667  0.66666667
   0.16666667  0.16666667  0.16666667
   0.16666667  0.16666667  0.50000000
   0.16666667  0.16666667  0.83333333
   0.16666667  0.50000000  0.16666667
   0.16666667  0.50000000  0.50000000
   0.16666667  0.50000000  0.83333333
   0.16666667  0.83333333  0.16666667
   0.16666667  0.83333333  0.50000000
   0.16666667  0.83333333  0.83333333
   0.50000000  0.16666667  0.16666667
   0.50000000  0.16666667  0.50000000
   0.50000000  0.16666667  0.83333333
   0.50000000  0.50000000  0.16666667
   0.50000000  0.50000000  0.50000000
   0.50000000  0.50000000  0.83333333
   0.50000000  0.83333333  0.16666667
   0.50000000  0.83333333  0.50000000
   0.50000000  0.83333333  0.83333333
   0.83333333  0.16666667  0.16666667
   0.83333333  0.16666667  0.50000000
   0.83333333  0.16666667  0.83333333
   0.83333333  0.50000000  0.16666667
   0.83333333  0.50000000  0.50000000
   0.83333333  0.50000000  0.83333333
   0.83333333  0.83333333  0.16666667
   0.83333333  0.83333333  0.50000000
   0.83333333  0.83333333  0.83333333
 
 position of ions in cartesian coordinates  (Angst):
   0.00000000  0.00000000  0.00000000
   0.00000000  0.00000000  3.47663713
   0.00000000  0.00000000  6.95327426
   0.00000000  2.75004939  0.00000000
   0.00000000  2.75004939  3.47663713
   0.00000000  2.75004939  6.95327426
   0.00000000  5.50009878  0.00000000
   0.00000000  5.50009878  3.47663713
   0.00000000  5.50009878  6.95327426
   2.75004939  0.00000000  0.00000000
   2.75004939  0.00000000  3.47663713
   2.75004939  0.00000000  6.95327426
   2.75004939  2.75004939  0.00000000
   2.75004939  2.75004939  3.47663713
   2.75004939  2.75004939  6.95327426
   2.75004939  5.50009878  0.00000000
   2.75004939  5.50009878  3.47663713
   2.75004939  5.50009878  6.95327426
   5.50009878  0.00000000  0.00000000
   5.50009878  0.00000000  3.47663713
   5.50009878  0.00000000  6.95327426
   5.50009878  2.75004939  0.00000000
   5.50009878  2.75004939  3.47663713
   5.50009878  2.75004939  6.95327426
   5.50009878  5.50009878  0.00000000
   5.50009878  5.50009878  3.47663713
   5.50009878  5.50009878  6.95327426
   1.37502469  1.37502469  1.73831857
   1.37502469  1.37502469  5.21495570
   1.37502469  1.37502469  8.69159283
   1.37502469  4.12507408  1.73831857
   1.37502469  4.12507408  5.21495570
   1.37502469  4.12507408  8.69159283
   1.37502469  6.87512347  1.73831857
   1.37502469  6.87512347  5.21495570
   1.37502469  6.87512347  8.69159283
   4.12507408  1.37502469  1.73831857
   4.12507408  1.37502469  5.21495570
   4.12507408  1.37502469  8.69159283
   4.12507408  4.12507408  1.73831857
   4.12507408  4.12507408  5.21495570
   4.12507408  4.12507408  8.69159283
   4.12507408  6.87512347  1.73831857
   4.12507408  6.87512347  5.21495570
   4.12507408  6.87512347  8.69159283
   6.87512347  1.37502469  1.73831857
   6.87512347  1.37502469  5.21495570
   6.87512347  1.37502469  8.69159283
   6.87512347  4.12507408  1.73831857
   6.87512347  4.12507408  5.21495570
   6.87512347  4.12507408  8.69159283
   6.87512347  6.87512347  1.73831857
   6.87512347  6.87512347  5.21495570
   6.87512347  6.87512347  8.69159283
 


--------------------------------------------------------------------------------------------------------


 k-point  1 :   0.0000 0.0000 0.0000  plane waves:   13099
 k-point  2 :   0.2000 0.0000 0.0000  plane waves:   13101
 k-point  3 :   0.4000 0.0000 0.0000  plane waves:   13111
 k-point  4 :   0.0000 0.2000 0.0000  plane waves:   13101
 k-point  5 :   0.2000 0.2000 0.0000  plane waves:   13137
 k-point  6 :   0.4000 0.2000 0.0000  plane waves:   13119
 k-point  7 :   0.0000 0.4000 0.0000  plane waves:   13111
 k-point  8 :   0.2000 0.4000 0.0000  plane waves:   13119
 k-point  9 :   0.4000 0.4000 0.0000  plane waves:   13129
 k-point 10 :   0.0000 0.0000 0.2500  plane waves:   13134
 k-point 11 :   0.2000 0.0000 0.2500  plane waves:   13149
 k-point 12 :   0.4000 0.0000 0.2500  plane waves:   13119
 k-point 13 :   0.0000 0.2000 0.2500  plane waves:   13149
 k-point 14 :   0.2000 0.2000 0.2500  plane waves:   13145
 k-point 15 :   0.4000 0.2000 0.2500  plane waves:   13134
 k-point 16 :   0.0000 0.4000 0.2500  plane waves:   13119
 k-point 17 :   0.2000 0.4000 0.2500  plane waves:   13134
 k-point 18 :   0.4000 0.4000 0.2500  plane waves:   13108
 k-point 19 :   0.0000 0.0000 0.5000  plane waves:   13186
 k-point 20 :   0.2000 0.0000 0.5000  plane waves:   13124
 k-point 21 :   0.4000 0.0000 0.5000  plane waves:   13152
 k-point 22 :   0.0000 0.2000 0.5000  plane waves:   13124
 k-point 23 :   0.2000 0.2000 0.5000  plane waves:   13136
 k-point 24 :   0.4000 0.2000 0.5000  plane waves:   13128
 k-point 25 :   0.0000 0.4000 0.5000  plane waves:   13152
 k-point 26 :   0.2000 0.4000 0.5000  plane waves:   13128
 k-point 27 :   0.4000 0.4000 0.5000  plane waves:   13112

 maximum and minimum number of plane-waves per node :      3304     3246

 maximum number of plane-waves:     13186
 maximum index in each direction: 
   IXMAX=   13   IYMAX=   13   IZMAX=   17
   IXMIN=  -13   IYMIN=  -13   IZMIN=  -17


 parallel 3D FFT for wavefunctions:
    minimum data exchange during FFTs selected (reduces bandwidth)
 parallel 3D FFT for charge:
    minimum data exchange during FFTs selected (reduces bandwidth)


 total amount of memory used by VASP MPI-rank0   869586. kBytes
=======================================================================

   base      :      30000. kBytes
   nonl-proj :      28494. kBytes
   fftplans  :      31580. kBytes
   grid      :      21385. kBytes
   one-center:        435. kBytes
   wavefun   :     757692. kBytes
 
     INWAV:  cpu time    0.0008: real time    0.0011
 Broyden mixing: mesh for mixing (old mesh)
   NGX = 27   NGY = 27   NGZ = 35
  (NGX  =108   NGY  =108   NGZ  =140)
  gives a total of  25515 points

 initial charge density was supplied:
 charge density of overlapping atoms calculated
 number of electron     270.0000000 magnetization       9.0000000
 keeping initial charge density in first step


--------------------------------------------------------------------------------------------------------


 Maximum index for augmentation-charges        10967 (set IRDMAX)


--------------------------------------------------------------------------------------------------------


 First call to EWALD:  gamma=   0.199
 Maximum number of real-space cells 3x 3x 2
 Maximum number of reciprocal cells 3x 3x 3

    FEWALD:  cpu time    0.0025: real time    0.0025


--------------------------------------- Iteration      1(   1)  ---------------------------------------


    POTLOK:  cpu time    0.3968: real time    0.3985
    SETDIJ:  cpu time    0.4928: real time    0.4942
    TRIAL :  cpu time   29.7208: real time   30.3506
    CORREC:  cpu time    0.0054: real time    0.0056
    --------------------------------------------
      LOOP:  cpu time   30.8598: real time   31.5171

 eigenvalue-minimisations  : 18144
 total energy-change (2. order) : 0.2047915E+04  (-0.8801347E+04)
 number of electron     270.0000000 magnetization       9.0000000
 augmentation part      270.0000000 magnetization       9.0000000

 Free energy of the ion-electron system (eV)
  ---------------------------------------------------
  alpha Z        PSCENC =       798.38614055
  Ewald energy   TEWEN  =    -12901.57693327
  -Hartree energ DENC   =     -2855.60785864
  -exchange      EXHF   =         0.00000000
  -V(xc)+E(xc)   XCENC  =      -996.08226082
  PAW double counting   =     12741.82587617   -11476.22345381
  entropy T*S    EENTRO =         0.00135092
  eigenvalues    EBANDS =      4039.51801603
  atomic energy  EATOM  =     12697.67401269
  ---------------------------------------------------
  free energy    TOTEN  =      2047.91488980 eV

  energy without entropy =     2047.91353888  energy(sigma->0) =     2047.91443950


--------------------------------------------------------------------------------------------------------




--------------------------------------- Iteration      1(   2)  ---------------------------------------


    TRIAL :  cpu time   30.2932: real time   31.7295
    CORREC:  cpu time    0.0067: real time    0.0076
    --------------------------------------------
      LOOP:  cpu time   30.3010: real time   31.7401

 eigenvalue-minimisations  : 18144
 total energy-change (2. order) :-0.2126941E+04  (-0.2078669E+04)
 number of electron     270.0000000 magnetization       9.0000000
 augmentation part      270.0000000 magnetization       9.0000000

 Free energy of the ion-electron system (eV)
  ---------------------------------------------------
  alpha Z        PSCENC =       798.38614055
  Ewald energy   TEWEN  =    -12901.57693327
  -Hartree energ DENC   =     -2855.60785864
  -exchange      EXHF   =         0.00000000
  -V(xc)+E(xc)   XCENC  =      -996.08226082
  PAW double counting   =     12741.82587617   -11476.22345381
  entropy T*S    EENTRO =         0.00639753
  eigenvalues    EBANDS =      1912.57172897
  atomic energy  EATOM  =     12697.67401269
  ---------------------------------------------------
  free energy    TOTEN  =       -79.02635065 eV

  energy without entropy =      -79.03274817  energy(sigma->0) =      -79.02848316


--------------------------------------------------------------------------------------------------------




--------------------------------------- Iteration      1(   3)  ---------------------------------------


    TRIAL :  cpu time   41.1737: real time   42.5508
    CORREC:  cpu time    0.0075: real time    0.0076
    --------------------------------------------
      LOOP:  cpu time   41.1822: real time   42.5611

 eigenvalue-minimisations  : 27256
 total energy-change (2. order) :-0.2718844E+03  (-0.2429040E+03)
 number of electron     270.0000000 magnetization       9.0000000
 augmentation part      270.0000000 magnetization       9.0000000

 Free energy of the ion-electron system (eV)
  ---------------------------------------------------
  alpha Z        PSCENC =       798.38614055
  Ewald energy   TEWEN  =    -12901.57693327
  -Hartree energ DENC   =     -2855.60785864
  -exchange      EXHF   =         0.00000000
  -V(xc)+E(xc)   XCENC  =      -996.08226082
  PAW double counting   =     12741.82587617   -11476.22345381
  entropy T*S    EENTRO =         0.00322842
  eigenvalues    EBANDS =      1640.69045677
  atomic energy  EATOM  =     12697.67401269
  ---------------------------------------------------
  free energy    TOTEN  =      -350.91079195 eV

  energy without entropy =     -350.91402037  energy(sigma->0) =     -350.91186809


--------------------------------------------------------------------------------------------------------




--------------------------------------- Iteration      1(   4)  ---------------------------------------


    TRIAL :  cpu time   44.2914: real time   45.2205
    CORREC:  cpu time    0.0082: real time    0.0091
    --------------------------------------------
      LOOP:  cpu time   44.3004: real time   45.2328

 eigenvalue-minimisations  : 29376
 total energy-change (2. order) :-0.4691300E+02  (-0.4145574E+02)
 number of electron     270.0000000 magnetization       9.0000000
 augmentation part      270.0000000 magnetization       9.0000000

 Free energy of the ion-electron system (eV)
  ---------------------------------------------------
  alpha Z        PSCENC =       798.38614055
  Ewald energy   TEWEN  =    -12901.57693327
  -Hartree energ DENC   =     -2855.60785864
  -exchange      EXHF   =         0.00000000
  -V(xc)+E(xc)   XCENC  =      -996.08226082
  PAW double counting   =     12741.82587617   -11476.22345381
  entropy T*S    EENTRO =         0.01488157
  eigenvalues    EBANDS =      1593.76579983
  atomic energy  EATOM  =     12697.67401269
  ---------------------------------------------------
  free energy    TOTEN  =      -397.82379573 eV

  energy without entropy =     -397.83867731  energy(sigma->0) =     -397.82875626


--------------------------------------------------------------------------------------------------------




--------------------------------------- Iteration      1(   5)  ---------------------------------------


    TRIAL :  cpu time   45.4562: real time   46.9552
    CORREC:  cpu time    0.0083: real time    0.0090
    --------------------------------------------
      LOOP:  cpu time   45.4659: real time   46.9674

 eigenvalue-minimisations  : 30464
 total energy-change (2. order) :-0.5575483E+01  (-0.5326247E+01)
 number of electron     270.0000000 magnetization       9.0000000
 augmentation part      270.0000000 magnetization       9.0000000

 Free energy of the ion-electron system (eV)
  ---------------------------------------------------
  alpha Z        PSCENC =       798.38614055
  Ewald energy   TEWEN  =    -12901.57693327
  -Hartree energ DENC   =     -2855.60785864
  -exchange      EXHF   =         0.00000000
  -V(xc)+E(xc)   XCENC  =      -996.08226082
  PAW double counting   =     12741.82587617   -11476.22345381
  entropy T*S    EENTRO =         0.02018513
  eigenvalues    EBANDS =      1588.18501312
  atomic energy  EATOM  =     12697.67401269
  ---------------------------------------------------
  free energy    TOTEN  =      -403.39927889 eV

  energy without entropy =     -403.41946402  energy(sigma->0) =     -403.40600727


--------------------------------------------------------------------------------------------------------




--------------------------------------- Iteration      1(   6)  ---------------------------------------


    TRIAL :  cpu time   45.1324: real time   46.1785
    CORREC:  cpu time    0.0084: real time    0.0085
    --------------------------------------------
      LOOP:  cpu time   45.1417: real time   46.1903

 eigenvalue-minimisations  : 30144
 total energy-change (2. order) :-0.4425230E+00  (-0.4324551E+00)
 number of electron     270.0000000 magnetization       9.0000000
 augmentation part      270.0000000 magnetization       9.0000000

 Free energy of the ion-electron system (eV)
  ---------------------------------------------------
  alpha Z        PSCENC =       798.38614055
  Ewald energy   TEWEN  =    -12901.57693327
  -Hartree energ DENC   =     -2855.60785864
  -exchange      EXHF   =         0.00000000
  -V(xc)+E(xc)   XCENC  =      -996.08226082
  PAW double counting   =     12741.82587617   -11476.22345381
  entropy T*S    EENTRO =         0.02206806
  eigenvalues    EBANDS =      1587.74060716
  atomic energy  EATOM  =     12697.67401269
  ---------------------------------------------------
  free energy    TOTEN  =      -403.84180192 eV

  energy without entropy =     -403.86386998  energy(sigma->0) =     -403.84915794


--------------------------------------------------------------------------------------------------------




--------------------------------------- Iteration      1(   7)  ---------------------------------------


    TRIAL :  cpu time   46.1451: real time   47.1660
    CORREC:  cpu time    0.0084: real time    0.0092
    --------------------------------------------
      LOOP:  cpu time   46.1544: real time   47.1782

 eigenvalue-minimisations  : 30736
 total energy-change (2. order) :-0.4635281E-01  (-0.4578717E-01)
 number of electron     270.0000000 magnetization       9.0000000
 augmentation part      270.0000000 magnetization       9.0000000

 Free energy of the ion-electron system (eV)
  ---------------------------------------------------
  alpha Z        PSCENC =       798.38614055
  Ewald energy   TEWEN  =    -12901.57693327
  -Hartree energ DENC   =     -2855.60785864
  -exchange      EXHF   =         0.00000000
  -V(xc)+E(xc)   XCENC  =      -996.08226082
  PAW double counting   =     12741.82587617   -11476.22345381
  entropy T*S    EENTRO =         0.02260485
  eigenvalues    EBANDS =      1587.69371756
  atomic energy  EATOM  =     12697.67401269
  ---------------------------------------------------
  free energy    TOTEN  =      -403.88815473 eV

  energy without entropy =     -403.91075958  energy(sigma->0) =     -403.89568968


--------------------------------------------------------------------------------------------------------




--------------------------------------- Iteration      1(   8)  ---------------------------------------


    TRIAL :  cpu time   43.9963: real time   44.8144
    CORREC:  cpu time    0.0087: real time    0.0095
    CHARGE:  cpu time    1.5579: real time    1.5580
    --------------------------------------------
      LOOP:  cpu time   45.5665: real time   46.3856

 eigenvalue-minimisations  : 29576
 total energy-change (2. order) :-0.4038124E-02  (-0.4004230E-02)
 number of electron     269.9999995 magnetization       5.9387375
 augmentation part       64.2279657 magnetization       3.4726162

 Free energy of the ion-electron system (eV)
  ---------------------------------------------------
  alpha Z        PSCENC =       798.38614055
  Ewald energy   TEWEN  =    -12901.57693327
  -Hartree energ DENC   =     -2855.60785864
  -exchange      EXHF   =         0.00000000
  -V(xc)+E(xc)   XCENC  =      -996.08226082
  PAW double counting   =     12741.82587617   -11476.22345381
  entropy T*S    EENTRO =         0.02275872
  eigenvalues    EBANDS =      1587.68952557
  atomic energy  EATOM  =     12697.67401269
  ---------------------------------------------------
  free energy    TOTEN  =      -403.89219286 eV

  energy without entropy =     -403.91495158  energy(sigma->0) =     -403.89977910


--------------------------------------------------------------------------------------------------------




--------------------------------------- Iteration      1(   9)  ---------------------------------------


    POTLOK:  cpu time    0.4000: real time    0.4000
    SETDIJ:  cpu time    0.4585: real time    0.4585
    TRIAL :  cpu time   15.8358: real time   15.9727
    CORREC:  cpu time    4.9506: real time    4.9730
    CHARGE:  cpu time    1.5818: real time    1.5915
    --------------------------------------------
      LOOP:  cpu time   23.2417: real time   23.4124

 eigenvalue-minimisations  :     0
 total energy-change (2. order) : 0.2980996E+03  (-0.2196663E+03)
 number of electron     269.9999993 magnetization       6.5849474
 augmentation part       83.0174072 magnetization       4.4252640

 Free energy of the ion-electron system (eV)
  ---------------------------------------------------
  alpha Z        PSCENC =       798.38614055
  Ewald energy   TEWEN  =    -12901.57693327
  -Hartree energ DENC   =     -1272.65684257
  -exchange      EXHF   =         0.00000000
  -V(xc)+E(xc)   XCENC  =     -1041.74204877
  PAW double counting   =     19172.05584139   -17752.61486119
  entropy T*S    EENTRO =         0.00569099
  eigenvalues    EBANDS =       194.65935423
  atomic energy  EATOM  =     12697.67401269
  ---------------------------------------------------
  free energy    TOTEN  =      -105.79257821 eV

  energy without entropy =     -105.79826920  energy(sigma->0) =     -105.79447520


--------------------------------------------------------------------------------------------------------




--------------------------------------- Iteration      1(  10)  ---------------------------------------


    POTLOK:  cpu time    0.3940: real time    0.3940
    SETDIJ:  cpu time    0.4574: real time    0.4573
    TRIAL :  cpu time   15.2022: real time   15.3412
    CORREC:  cpu time    5.5853: real time    5.5957
    CHARGE:  cpu time    1.5604: real time    1.5709
    --------------------------------------------
      LOOP:  cpu time   23.2177: real time   23.3777

 eigenvalue-minimisations  :     0
 total energy-change (2. order) :-0.2137976E+03  (-0.1130783E+02)
 number of electron     269.9999993 magnetization       6.7790952
 augmentation part       86.6752038 magnetization       4.5511110

 Free energy of the ion-electron system (eV)
  ---------------------------------------------------
  alpha Z        PSCENC =       798.38614055
  Ewald energy   TEWEN  =    -12901.57693327
  -Hartree energ DENC   =     -2133.63643640
  -exchange      EXHF   =         0.00000000
  -V(xc)+E(xc)   XCENC  =     -1011.65283193
  PAW double counting   =     20763.01116199   -19530.15208329
  entropy T*S    EENTRO =         0.00424246
  eigenvalues    EBANDS =       998.35111062
  atomic energy  EATOM  =     12697.67401269
  ---------------------------------------------------
  free energy    TOTEN  =      -319.59016804 eV

  energy without entropy =     -319.59441050  energy(sigma->0) =     -319.59158220


--------------------------------------------------------------------------------------------------------




--------------------------------------- Iteration      1(  11)  ---------------------------------------


    POTLOK:  cpu time    0.3935: real time    0.3935
    SETDIJ:  cpu time    0.4586: real time    0.4586
    TRIAL :  cpu time   15.8508: real time   15.9090
    CORREC:  cpu time    4.9314: real time    4.9327
    CHARGE:  cpu time    1.5613: real time    1.5789
    --------------------------------------------
      LOOP:  cpu time   23.1975: real time   23.2755

 eigenvalue-minimisations  :     0
 total energy-change (2. order) :-0.1063748E+02  (-0.1117669E+02)
 number of electron     269.9999993 magnetization       7.0109214
 augmentation part       89.1608982 magnetization       4.8387315

 Free energy of the ion-electron system (eV)
  ---------------------------------------------------
  alpha Z        PSCENC =       798.38614055
  Ewald energy   TEWEN  =    -12901.57693327
  -Hartree energ DENC   =     -2356.98391720
  -exchange      EXHF   =         0.00000000
  -V(xc)+E(xc)   XCENC  =     -1003.44225540
  PAW double counting   =     21591.74417554   -20394.03191868
  entropy T*S    EENTRO =         0.01014847
  eigenvalues    EBANDS =      1237.99880183
  atomic energy  EATOM  =     12697.67401269
  ---------------------------------------------------
  free energy    TOTEN  =      -330.22765149 eV

  energy without entropy =     -330.23779996  energy(sigma->0) =     -330.23103431


--------------------------------------------------------------------------------------------------------




--------------------------------------- Iteration      1(  12)  ---------------------------------------


    POTLOK:  cpu time    0.3928: real time    0.3927
    SETDIJ:  cpu time    0.4447: real time    0.5295
    TRIAL :  cpu time   15.1559: real time   15.9294
    CORREC:  cpu time    4.9276: real time    4.9523
    CHARGE:  cpu time    1.5805: real time    1.5803
    --------------------------------------------
      LOOP:  cpu time   22.5105: real time   23.3942

 eigenvalue-minimisations  :     0
 total energy-change (2. order) :-0.1125536E+02  (-0.1136449E+02)
 number of electron     269.9999993 magnetization       7.1494328
 augmentation part       86.7440652 magnetization       4.9664849

 Free energy of the ion-electron system (eV)
  ---------------------------------------------------
  alpha Z        PSCENC =       798.38614055
  Ewald energy   TEWEN  =    -12901.57693327
  -Hartree energ DENC   =     -2561.83368139
  -exchange      EXHF   =         0.00000000
  -V(xc)+E(xc)   XCENC  =      -996.48450739
  PAW double counting   =     21853.20061967   -20666.73222462
  entropy T*S    EENTRO =        -0.00732189
  eigenvalues    EBANDS =      1435.87341816
  atomic energy  EATOM  =     12697.67401269
  ---------------------------------------------------
  free energy    TOTEN  =      -341.48300714 eV

  energy without entropy =     -341.47568525  energy(sigma->0) =     -341.48056651


--------------------------------------------------------------------------------------------------------




--------------------------------------- Iteration      1(  13)  ---------------------------------------


    POTLOK:  cpu time    0.3946: real time    0.3946
    SETDIJ:  cpu time    0.5347: real time    0.5346
    TRIAL :  cpu time   15.6008: real time   15.7477
    CORREC:  cpu time    4.9232: real time    4.9522
    CHARGE:  cpu time    2.2990: real time    2.3406
    --------------------------------------------
      LOOP:  cpu time   23.7599: real time   23.9788

 eigenvalue-minimisations  :     0
 total energy-change (2. order) :-0.1127082E+02  (-0.7911465E+00)
 number of electron     269.9999993 magnetization       7.3373936
 augmentation part       86.3068345 magnetization       4.9833266

 Free energy of the ion-electron system (eV)
  ---------------------------------------------------
  alpha Z        PSCENC =       798.38614055
  Ewald energy   TEWEN  =    -12901.57693327
  -Hartree energ DENC   =     -2518.41773986
  -exchange      EXHF   =         0.00000000
  -V(xc)+E(xc)   XCENC  =      -998.94502252
  PAW double counting   =     21236.19618717   -19997.33821289
  entropy T*S    EENTRO =        -0.01135787
  eigenvalues    EBANDS =      1331.27506697
  atomic energy  EATOM  =     12697.67401269
  ---------------------------------------------------
  free energy    TOTEN  =      -352.75382304 eV

  energy without entropy =     -352.74246517  energy(sigma->0) =     -352.75003709


--------------------------------------------------------------------------------------------------------




--------------------------------------- Iteration      1(  14)  ---------------------------------------


    POTLOK:  cpu time    0.3993: real time    0.3993
    SETDIJ:  cpu time    0.4572: real time    0.4572
    TRIAL :  cpu time   15.8068: real time   15.9151
    CORREC:  cpu time    4.9612: real time    4.9652
    CHARGE:  cpu time    1.5622: real time    1.5627
    --------------------------------------------
      LOOP:  cpu time   23.2036: real time   23.3176

 eigenvalue-minimisations  :     0
 total energy-change (2. order) :-0.7885402E+00  (-0.1246705E+01)
 number of electron     269.9999993 magnetization       7.4741606
 augmentation part       86.0057894 magnetization       4.9898739

 Free energy of the ion-electron system (eV)
  ---------------------------------------------------
  alpha Z        PSCENC =       798.38614055
  Ewald energy   TEWEN  =    -12901.57693327
  -Hartree energ DENC   =     -2495.11297604
  -exchange      EXHF   =         0.00000000
  -V(xc)+E(xc)   XCENC  =      -999.81924833
  PAW double counting   =     20965.21539098   -19718.88818083
  entropy T*S    EENTRO =        -0.01057843
  eigenvalues    EBANDS =      1300.59078885
  atomic energy  EATOM  =     12697.67401269
  ---------------------------------------------------
  free energy    TOTEN  =      -353.54236327 eV

  energy without entropy =     -353.53178484  energy(sigma->0) =     -353.53883713


--------------------------------------------------------------------------------------------------------




--------------------------------------- Iteration      1(  15)  ---------------------------------------


    POTLOK:  cpu time    0.3955: real time    0.4056
    SETDIJ:  cpu time    0.4695: real time    0.4697
    TRIAL :  cpu time   15.1982: real time   15.3186
    CORREC:  cpu time    4.9393: real time    5.0006
    CHARGE:  cpu time    1.5596: real time    1.5601
    --------------------------------------------
      LOOP:  cpu time   22.5695: real time   22.7631

 eigenvalue-minimisations  :     0
 total energy-change (2. order) :-0.1245068E+01  (-0.6553928E+00)
 number of electron     269.9999992 magnetization       7.3459868
 augmentation part       86.5504794 magnetization       5.0040554

 Free energy of the ion-electron system (eV)
  ---------------------------------------------------
  alpha Z        PSCENC =       798.38614055
  Ewald energy   TEWEN  =    -12901.57693327
  -Hartree energ DENC   =     -2464.85954644
  -exchange      EXHF   =         0.00000000
  -V(xc)+E(xc)   XCENC  =     -1000.90210121
  PAW double counting   =     20137.92154286   -18882.59504088
  entropy T*S    EENTRO =        -0.01259065
  eigenvalues    EBANDS =      1261.17507246
  atomic energy  EATOM  =     12697.67401269
  ---------------------------------------------------
  free energy    TOTEN  =      -354.78743167 eV

  energy without entropy =     -354.77484102  energy(sigma->0) =     -354.78323478


--------------------------------------------------------------------------------------------------------




--------------------------------------- Iteration      1(  16)  ---------------------------------------


    POTLOK:  cpu time    0.3943: real time    0.3944
    SETDIJ:  cpu time    1.2783: real time    1.2826
    TRIAL :  cpu time   15.8288: real time   15.8862
    CORREC:  cpu time    4.9271: real time    4.9369
    CHARGE:  cpu time    1.5656: real time    1.5660
    --------------------------------------------
      LOOP:  cpu time   23.9980: real time   24.0704

 eigenvalue-minimisations  :     0
 total energy-change (2. order) :-0.6509252E+00  (-0.2707793E+00)
 number of electron     269.9999992 magnetization       7.4852001
 augmentation part       87.1604848 magnetization       5.0802065

 Free energy of the ion-electron system (eV)
  ---------------------------------------------------
  alpha Z        PSCENC =       798.38614055
  Ewald energy   TEWEN  =    -12901.57693327
  -Hartree energ DENC   =     -2482.71985877
  -exchange      EXHF   =         0.00000000
  -V(xc)+E(xc)   XCENC  =     -1000.17505367
  PAW double counting   =     19753.08396292   -18500.99180478
  entropy T*S    EENTRO =        -0.01271015
  eigenvalues    EBANDS =      1280.89376805
  atomic energy  EATOM  =     12697.67401269
  ---------------------------------------------------
  free energy    TOTEN  =      -355.43835691 eV

  energy without entropy =     -355.42564677  energy(sigma->0) =     -355.43412020


--------------------------------------------------------------------------------------------------------




--------------------------------------- Iteration      1(  17)  ---------------------------------------


    POTLOK:  cpu time    0.3934: real time    0.3935
    SETDIJ:  cpu time    0.4797: real time    0.4798
    TRIAL :  cpu time   15.7334: real time   15.9528
    CORREC:  cpu time    4.9521: real time    4.9760
    CHARGE:  cpu time    1.5593: real time    1.5597
    --------------------------------------------
      LOOP:  cpu time   23.1259: real time   23.3705

 eigenvalue-minimisations  :     0
 total energy-change (2. order) :-0.2714352E+00  (-0.2074586E+00)
 number of electron     269.9999992 magnetization       7.5316277
 augmentation part       87.3103103 magnetization       5.1379089

 Free energy of the ion-electron system (eV)
  ---------------------------------------------------
  alpha Z        PSCENC =       798.38614055
  Ewald energy   TEWEN  =    -12901.57693327
  -Hartree energ DENC   =     -2509.99291885
  -exchange      EXHF   =         0.00000000
  -V(xc)+E(xc)   XCENC  =      -999.04007066
  PAW double counting   =     19633.96791186   -18387.82630028
  entropy T*S    EENTRO =        -0.01267488
  eigenvalues    EBANDS =      1312.71107603
  atomic energy  EATOM  =     12697.67401269
  ---------------------------------------------------
  free energy    TOTEN  =      -355.70979208 eV

  energy without entropy =     -355.69711720  energy(sigma->0) =     -355.70556712


--------------------------------------------------------------------------------------------------------




--------------------------------------- Iteration      1(  18)  ---------------------------------------


    POTLOK:  cpu time    0.3933: real time    0.3935
    SETDIJ:  cpu time    0.4582: real time    0.4584
    TRIAL :  cpu time   15.6627: real time   15.8124
    CORREC:  cpu time    4.9778: real time    4.9803
    CHARGE:  cpu time    1.5476: real time    1.5783
    --------------------------------------------
      LOOP:  cpu time   23.0441: real time   23.2285

 eigenvalue-minimisations  :     0
 total energy-change (2. order) :-0.2074876E+00  (-0.1777240E+00)
 number of electron     269.9999992 magnetization       7.5531211
 augmentation part       87.1210994 magnetization       5.1945401

 Free energy of the ion-electron system (eV)
  ---------------------------------------------------
  alpha Z        PSCENC =       798.38614055
  Ewald energy   TEWEN  =    -12901.57693327
  -Hartree energ DENC   =     -2515.29469134
  -exchange      EXHF   =         0.00000000
  -V(xc)+E(xc)   XCENC  =      -998.60899356
  PAW double counting   =     19556.23148013   -18311.50945877
  entropy T*S    EENTRO =        -0.01391643
  eigenvalues    EBANDS =      1318.79383879
  atomic energy  EATOM  =     12697.67401269
  ---------------------------------------------------
  free energy    TOTEN  =      -355.91727966 eV

  energy without entropy =     -355.90336323  energy(sigma->0) =     -355.91264085


--------------------------------------------------------------------------------------------------------




--------------------------------------- Iteration      1(  19)  ---------------------------------------


    POTLOK:  cpu time    0.3919: real time    0.3921
    SETDIJ:  cpu time    0.4695: real time    0.4697
    TRIAL :  cpu time   15.8641: real time   15.9854
    CORREC:  cpu time    5.6866: real time    5.7081
    CHARGE:  cpu time    1.5676: real time    1.5681
    --------------------------------------------
      LOOP:  cpu time   23.9815: real time   24.1268

 eigenvalue-minimisations  :     0
 total energy-change (2. order) :-0.1765227E+00  (-0.5575728E-01)
 number of electron     269.9999992 magnetization       7.5900673
 augmentation part       86.9531401 magnetization       5.2238859

 Free energy of the ion-electron system (eV)
  ---------------------------------------------------
  alpha Z        PSCENC =       798.38614055
  Ewald energy   TEWEN  =    -12901.57693327
  -Hartree energ DENC   =     -2503.89576322
  -exchange      EXHF   =         0.00000000
  -V(xc)+E(xc)   XCENC  =      -998.76288656
  PAW double counting   =     19493.45681057   -18246.66163975
  entropy T*S    EENTRO =        -0.01419424
  eigenvalues    EBANDS =      1305.30037309
  atomic energy  EATOM  =     12697.67401269
  ---------------------------------------------------
  free energy    TOTEN  =      -356.09380233 eV

  energy without entropy =     -356.07960809  energy(sigma->0) =     -356.08907091


--------------------------------------------------------------------------------------------------------




--------------------------------------- Iteration      1(  20)  ---------------------------------------


    POTLOK:  cpu time    0.3942: real time    0.3943
    SETDIJ:  cpu time    0.4703: real time    0.4706
    TRIAL :  cpu time   15.2491: real time   15.3127
    CORREC:  cpu time    4.8962: real time    5.0311
    CHARGE:  cpu time    1.5612: real time    1.5616
    --------------------------------------------
      LOOP:  cpu time   22.5765: real time   22.7769

 eigenvalue-minimisations  :     0
 total energy-change (2. order) :-0.5559963E-01  (-0.8931319E-01)
 number of electron     269.9999992 magnetization       7.6184043
 augmentation part       86.7831242 magnetization       5.2618942

 Free energy of the ion-electron system (eV)
  ---------------------------------------------------
  alpha Z        PSCENC =       798.38614055
  Ewald energy   TEWEN  =    -12901.57693327
  -Hartree energ DENC   =     -2495.70121108
  -exchange      EXHF   =         0.00000000
  -V(xc)+E(xc)   XCENC  =      -998.96754353
  PAW double counting   =     19474.82355679   -18226.31802781
  entropy T*S    EENTRO =        -0.01528253
  eigenvalues    EBANDS =      1295.54479794
  atomic energy  EATOM  =     12697.67401269
  ---------------------------------------------------
  free energy    TOTEN  =      -356.14940196 eV

  energy without entropy =     -356.13411942  energy(sigma->0) =     -356.14430778


--------------------------------------------------------------------------------------------------------




--------------------------------------- Iteration      1(  21)  ---------------------------------------


    POTLOK:  cpu time    0.3928: real time    0.3929
    SETDIJ:  cpu time    0.4631: real time    0.4634
    TRIAL :  cpu time   16.5206: real time   16.5867
    CORREC:  cpu time    4.9472: real time    4.9587
    CHARGE:  cpu time    1.5574: real time    1.5580
    --------------------------------------------
      LOOP:  cpu time   23.9023: real time   23.9825

 eigenvalue-minimisations  :     0
 total energy-change (2. order) :-0.8929871E-01  (-0.4412327E-01)
 number of electron     269.9999992 magnetization       7.6946347
 augmentation part       86.8528791 magnetization       5.3091101

 Free energy of the ion-electron system (eV)
  ---------------------------------------------------
  alpha Z        PSCENC =       798.38614055
  Ewald energy   TEWEN  =    -12901.57693327
  -Hartree energ DENC   =     -2490.64800418
  -exchange      EXHF   =         0.00000000
  -V(xc)+E(xc)   XCENC  =      -999.00301522
  PAW double counting   =     19471.54019236   -18221.80352400
  entropy T*S    EENTRO =        -0.01607132
  eigenvalues    EBANDS =      1289.20771294
  atomic energy  EATOM  =     12697.67401269
  ---------------------------------------------------
  free energy    TOTEN  =      -356.23870066 eV

  energy without entropy =     -356.22262934  energy(sigma->0) =     -356.23334355


--------------------------------------------------------------------------------------------------------




--------------------------------------- Iteration      1(  22)  ---------------------------------------


    POTLOK:  cpu time    0.3931: real time    0.3932
    SETDIJ:  cpu time    0.4638: real time    0.4640
    TRIAL :  cpu time   15.7231: real time   15.8902
    CORREC:  cpu time    4.9335: real time    4.9438
    CHARGE:  cpu time    1.5572: real time    1.5738
    --------------------------------------------
      LOOP:  cpu time   23.0754: real time   23.2707

 eigenvalue-minimisations  :     0
 total energy-change (2. order) :-0.4414105E-01  (-0.2047957E-01)
 number of electron     269.9999992 magnetization       7.7174321
 augmentation part       86.9723086 magnetization       5.3334024

 Free energy of the ion-electron system (eV)
  ---------------------------------------------------
  alpha Z        PSCENC =       798.38614055
  Ewald energy   TEWEN  =    -12901.57693327
  -Hartree energ DENC   =     -2496.47084281
  -exchange      EXHF   =         0.00000000
  -V(xc)+E(xc)   XCENC  =      -998.71429497
  PAW double counting   =     19488.14608269   -18239.56754589
  entropy T*S    EENTRO =        -0.01642349
  eigenvalues    EBANDS =      1295.85661063
  atomic energy  EATOM  =     12697.67401269
  ---------------------------------------------------
  free energy    TOTEN  =      -356.28284171 eV

  energy without entropy =     -356.26641821  energy(sigma->0) =     -356.27736721


--------------------------------------------------------------------------------------------------------




--------------------------------------- Iteration      1(  23)  ---------------------------------------


    POTLOK:  cpu time    0.3919: real time    0.3924
    SETDIJ:  cpu time    0.4857: real time    0.4920
    TRIAL :  cpu time   15.7964: real time   15.9279
    CORREC:  cpu time    4.9732: real time    4.9850
    CHARGE:  cpu time    1.5314: real time    1.5312
    --------------------------------------------
      LOOP:  cpu time   23.1847: real time   23.3366

 eigenvalue-minimisations  :     0
 total energy-change (2. order) :-0.2050139E-01  (-0.1110756E-01)
 number of electron     269.9999992 magnetization       7.7279494
 augmentation part       86.9996544 magnetization       5.3472435

 Free energy of the ion-electron system (eV)
  ---------------------------------------------------
  alpha Z        PSCENC =       798.38614055
  Ewald energy   TEWEN  =    -12901.57693327
  -Hartree energ DENC   =     -2503.64339205
  -exchange      EXHF   =         0.00000000
  -V(xc)+E(xc)   XCENC  =      -998.41617599
  PAW double counting   =     19502.07489843   -18254.96811080
  entropy T*S    EENTRO =        -0.01660796
  eigenvalues    EBANDS =      1304.18264084
  atomic energy  EATOM  =     12697.67401269
  ---------------------------------------------------
  free energy    TOTEN  =      -356.30334310 eV

  energy without entropy =     -356.28673514  energy(sigma->0) =     -356.29780711


--------------------------------------------------------------------------------------------------------




--------------------------------------- Iteration      1(  24)  ---------------------------------------


    POTLOK:  cpu time    0.3930: real time    0.3929
    SETDIJ:  cpu time    0.4858: real time    0.4858
    TRIAL :  cpu time   15.8783: real time   15.9323
[...]
   45       -0.015  -0.017  -2.288  -2.319
   46        0.014   0.018   2.256   2.288
   47       -0.016  -0.012  -2.245  -2.273
   48       -0.018  -0.019  -2.355  -2.392
   49        0.014   0.018   2.256   2.288
   50       -0.016  -0.012  -2.245  -2.273
   51       -0.018  -0.019  -2.355  -2.392
   52        0.014   0.018   2.256   2.288
   53       -0.016  -0.012  -2.245  -2.273
   54       -0.018  -0.019  -2.355  -2.392
--------------------------------------------------
tot         -0.009  -0.026   7.862   7.827
 
    FORLOC:  cpu time    0.0587: real time    0.0587
    FORNL :  cpu time   23.6999: real time   23.7747
    STRESS:  cpu time   33.9059: real time   34.1908
    FORCOR:  cpu time    0.4416: real time    0.4416
    OFIELD:  cpu time    0.0023: real time    0.0023

  FORCE on cell =-STRESS in cart. coord.  units (eV):
  Direction    XX          YY          ZZ          XY          YZ          ZX
  --------------------------------------------------------------------------------------
  Alpha Z   798.38614   798.38614   798.38614
  Ewald   -4053.61603 -4053.61603 -4794.40593    -0.00000    -0.00000    -0.00000
  Hartree  1083.45528  1085.96087   332.27507    -0.00000    -0.00000    -0.00000
  E(xc)   -1141.23029 -1141.83322 -1139.52807    -0.00000    -0.00000    -0.00000
  Local     371.24090   364.94187  1906.51741     0.00000    -0.00000    -0.00000
  n-local  -170.20393  -171.98431  -176.13950     0.43270    -0.26043    -0.29127
  augment   783.56631   786.01909   766.96954     0.00000     0.00001     0.00001
  Kinetic  2333.83074  2338.37161  2308.28124    -2.47473    -1.49672    -1.03005
  Fock        0.00000     0.00000     0.00000     0.00000     0.00000     0.00000
  -------------------------------------------------------------------------------------
  Total       5.42912     6.24602     2.35591     0.00000     0.00000     0.00000
  in kB      12.25281    14.09645     5.31698     0.00000     0.00000     0.00000
  external pressure =       10.56 kB  Pullay stress =        0.00 kB


 VOLUME and BASIS-vectors are now :
 -----------------------------------------------------------------------------
  energy-cutoff  :      404.80
  volume of cell :      709.91
      direct lattice vectors                 reciprocal lattice vectors
     8.250148166  0.000000000  0.000000000     0.121209944  0.000000000  0.000000000
     0.000000000  8.250148166  0.000000000     0.000000000  0.121209944  0.000000000
     0.000000000  0.000000000 10.429911392     0.000000000  0.000000000  0.095878092

  length of vectors
     8.250148166  8.250148166 10.429911392     0.121209944  0.121209944  0.095878092


 FORCES acting on ions:
    Electron-Ion                     Ewald-Force                    Non-Local-Force
 -----------------------------------------------------------------------------------------------
   -.104E-01 -.255E-10 0.168E-01   -.239E-08 -.239E-08 -.210E-08   -.234E-02 -.542E-19 -.123E-01
   -.815E-01 -.254E-10 -.563E-01   -.239E-08 -.239E-08 0.171E-08   0.570E-01 0.325E-18 -.483E-02
   0.472E-01 -.255E-10 0.744E-01   -.239E-08 -.239E-08 0.861E-08   -.135E+00 0.230E-18 -.710E-02
   -.104E-01 -.625E-09 0.168E-01   -.239E-08 -.802E-09 -.210E-08   -.234E-02 0.000E+00 -.123E-01
   -.815E-01 -.620E-09 -.563E-01   -.239E-08 -.802E-09 0.171E-08   0.570E-01 -.108E-18 -.483E-02
   0.472E-01 -.617E-09 0.744E-01   -.239E-08 -.802E-09 0.861E-08   -.135E+00 0.000E+00 -.710E-02
   -.104E-01 -.379E-08 0.168E-01   -.239E-08 0.631E-08 -.210E-08   -.234E-02 -.542E-19 -.123E-01
   -.815E-01 -.378E-08 -.563E-01   -.239E-08 0.631E-08 0.171E-08   0.570E-01 -.217E-18 -.483E-02
   0.472E-01 -.378E-08 0.744E-01   -.239E-08 0.631E-08 0.861E-08   -.135E+00 0.217E-18 -.710E-02
   0.373E-09 -.255E-10 -.146E+00   -.802E-09 -.239E-08 -.210E-08   0.271E-18 0.217E-18 0.742E-01
   0.372E-09 -.254E-10 -.205E-01   -.802E-09 -.239E-08 0.171E-08   0.847E-21 0.813E-19 0.726E-01
   0.372E-09 -.255E-10 0.447E-01   -.803E-09 -.239E-08 0.861E-08   0.203E-19 0.000E+00 -.421E-01
   0.373E-09 -.629E-09 -.146E+00   -.802E-09 -.802E-09 -.210E-08   0.271E-18 0.217E-18 0.742E-01
   0.372E-09 -.624E-09 -.205E-01   -.802E-09 -.802E-09 0.171E-08   0.000E+00 -.136E-18 0.726E-01
   0.372E-09 -.634E-09 0.447E-01   -.803E-09 -.802E-09 0.861E-08   -.136E-19 -.108E-18 -.421E-01
   0.373E-09 -.380E-08 -.146E+00   -.802E-09 0.631E-08 -.210E-08   0.108E-18 0.217E-18 0.742E-01
   0.372E-09 -.379E-08 -.205E-01   -.802E-09 0.631E-08 0.171E-08   0.847E-21 0.542E-19 0.726E-01
   0.372E-09 -.381E-08 0.447E-01   -.803E-09 0.631E-08 0.861E-08   -.339E-19 0.217E-18 -.421E-01
   0.104E-01 -.255E-10 0.168E-01   0.631E-08 -.239E-08 -.210E-08   0.234E-02 0.813E-19 -.123E-01
   0.815E-01 -.254E-10 -.563E-01   0.631E-08 -.239E-08 0.171E-08   -.570E-01 0.136E-18 -.483E-02
   -.472E-01 -.255E-10 0.744E-01   0.631E-08 -.239E-08 0.861E-08   0.135E+00 -.217E-18 -.710E-02
   0.104E-01 -.625E-09 0.168E-01   0.631E-08 -.802E-09 -.210E-08   0.234E-02 0.813E-19 -.123E-01
   0.815E-01 -.620E-09 -.563E-01   0.631E-08 -.802E-09 0.171E-08   -.570E-01 0.244E-18 -.483E-02
   -.472E-01 -.617E-09 0.744E-01   0.631E-08 -.802E-09 0.861E-08   0.135E+00 -.217E-18 -.710E-02
   0.104E-01 -.379E-08 0.168E-01   0.631E-08 0.631E-08 -.210E-08   0.234E-02 -.542E-19 -.123E-01
   0.815E-01 -.378E-08 -.563E-01   0.631E-08 0.631E-08 0.171E-08   -.570E-01 -.325E-18 -.483E-02
   -.472E-01 -.378E-08 0.744E-01   0.631E-08 0.631E-08 0.861E-08   0.135E+00 0.000E+00 -.710E-02
   -.774E-01 0.522E-08 0.469E-01   -.169E-07 -.169E-07 -.180E-07   0.933E-01 -.163E-18 -.142E+00
   0.251E+00 0.525E-08 -.807E-01   -.169E-07 -.169E-07 -.170E-08   -.402E-01 0.130E-17 0.127E+00
   0.193E-01 0.524E-08 0.719E-01   -.169E-07 -.169E-07 0.115E-07   -.887E-02 -.217E-18 -.625E-01
   -.774E-01 0.824E-11 0.469E-01   -.169E-07 0.802E-09 -.180E-07   0.933E-01 0.542E-19 -.142E+00
   0.251E+00 0.829E-11 -.807E-01   -.169E-07 0.802E-09 -.170E-08   -.402E-01 -.867E-18 0.127E+00
   0.193E-01 0.828E-11 0.719E-01   -.169E-07 0.802E-09 0.115E-07   -.887E-02 0.108E-17 -.625E-01
   -.774E-01 -.526E-08 0.469E-01   -.169E-07 0.130E-07 -.180E-07   0.933E-01 -.217E-18 -.142E+00
   0.251E+00 -.529E-08 -.807E-01   -.169E-07 0.130E-07 -.170E-08   -.402E-01 0.130E-17 0.127E+00
   0.193E-01 -.528E-08 0.719E-01   -.169E-07 0.130E-07 0.115E-07   -.887E-02 -.217E-18 -.625E-01
   0.774E-01 0.522E-08 0.469E-01   0.802E-09 -.169E-07 -.180E-07   -.933E-01 0.000E+00 -.142E+00
   -.251E+00 0.525E-08 -.807E-01   0.802E-09 -.169E-07 -.170E-08   0.402E-01 0.000E+00 0.127E+00
   -.193E-01 0.524E-08 0.719E-01   0.802E-09 -.169E-07 0.115E-07   0.887E-02 -.434E-18 -.625E-01
   0.774E-01 0.799E-11 0.469E-01   0.802E-09 0.802E-09 -.180E-07   -.933E-01 0.217E-18 -.142E+00
   -.251E+00 0.942E-11 -.807E-01   0.802E-09 0.802E-09 -.170E-08   0.402E-01 0.173E-17 0.127E+00
   -.193E-01 0.980E-11 0.719E-01   0.802E-09 0.802E-09 0.115E-07   0.887E-02 -.867E-18 -.625E-01
   0.774E-01 -.526E-08 0.469E-01   0.802E-09 0.130E-07 -.180E-07   -.933E-01 0.217E-18 -.142E+00
   -.251E+00 -.529E-08 -.807E-01   0.802E-09 0.130E-07 -.170E-08   0.402E-01 -.260E-17 0.127E+00
   -.193E-01 -.528E-08 0.719E-01   0.802E-09 0.130E-07 0.115E-07   0.887E-02 0.434E-18 -.625E-01
   -.605E-08 0.524E-08 -.118E+00   0.130E-07 -.169E-07 -.180E-07   0.867E-18 -.217E-18 0.113E+00
   -.605E-08 0.525E-08 0.190E+00   0.130E-07 -.169E-07 -.170E-08   -.434E-18 -.108E-18 -.210E+00
   -.605E-08 0.521E-08 -.118E+00   0.130E-07 -.169E-07 0.115E-07   -.108E-18 0.000E+00 0.223E+00
   -.605E-08 0.936E-11 -.118E+00   0.130E-07 0.802E-09 -.180E-07   -.867E-18 0.108E-17 0.113E+00
   -.605E-08 0.611E-11 0.190E+00   0.130E-07 0.802E-09 -.170E-08   -.867E-18 0.000E+00 -.210E+00
   -.605E-08 0.781E-11 -.118E+00   0.130E-07 0.802E-09 0.115E-07   -.325E-18 -.217E-18 0.223E+00
   -.605E-08 -.529E-08 -.118E+00   0.130E-07 0.130E-07 -.180E-07   -.173E-17 -.434E-18 0.113E+00
   -.605E-08 -.529E-08 0.190E+00   0.130E-07 0.130E-07 -.170E-08   0.217E-17 0.108E-18 -.210E+00
   -.605E-08 -.526E-08 -.118E+00   0.130E-07 0.130E-07 0.115E-07   -.108E-18 -.217E-18 0.223E+00
 -----------------------------------------------------------------------------------------------
   -.361E-07 -.449E-07 -.813E-01   -.614E-13 -.142E-13 0.128E-13   -.101E-16 0.159E-17 0.813E-01
 
 
 POSITION                                       TOTAL-FORCE (eV/Angst)
 -----------------------------------------------------------------------------------
      0.00000      0.00000      0.00000        -0.012671      0.000000      0.005901
      0.00000      0.00000      3.47664        -0.029772      0.000000     -0.059517
      0.00000      0.00000      6.95327        -0.076818      0.000000      0.066841
      0.00000      2.75005      0.00000        -0.012671      0.000000      0.005901
      0.00000      2.75005      3.47664        -0.029772      0.000000     -0.059517
      0.00000      2.75005      6.95327        -0.076818      0.000000      0.066841
      0.00000      5.50010      0.00000        -0.012671      0.000000      0.005901
      0.00000      5.50010      3.47664        -0.029772      0.000000     -0.059517
      0.00000      5.50010      6.95327        -0.076818      0.000000      0.066841
      2.75005      0.00000      0.00000         0.000000      0.000000     -0.078560
      2.75005      0.00000      3.47664         0.000000      0.000000      0.046443
      2.75005      0.00000      6.95327         0.000000     -0.000000      0.005505
      2.75005      2.75005      0.00000         0.000000      0.000000     -0.078560
      2.75005      2.75005      3.47664         0.000000      0.000000      0.046443
      2.75005      2.75005      6.95327         0.000000     -0.000000      0.005505
      2.75005      5.50010      0.00000         0.000000      0.000000     -0.078560
      2.75005      5.50010      3.47664         0.000000      0.000000      0.046443
      2.75005      5.50010      6.95327         0.000000      0.000000      0.005505
      5.50010      0.00000      0.00000         0.012671     -0.000000      0.005901
      5.50010      0.00000      3.47664         0.029772     -0.000000     -0.059517
      5.50010      0.00000      6.95327         0.076818     -0.000000      0.066841
      5.50010      2.75005      0.00000         0.012671     -0.000000      0.005901
      5.50010      2.75005      3.47664         0.029772     -0.000000     -0.059517
      5.50010      2.75005      6.95327         0.076818     -0.000000      0.066841
      5.50010      5.50010      0.00000         0.012671     -0.000000      0.005901
      5.50010      5.50010      3.47664         0.029772     -0.000000     -0.059517
      5.50010      5.50010      6.95327         0.076818      0.000000      0.066841
      1.37502      1.37502      1.73832         0.018031      0.000000     -0.086545
      1.37502      1.37502      5.21496         0.214319      0.000000      0.039239
      1.37502      1.37502      8.69159         0.009694      0.000000      0.008573
      1.37502      4.12507      1.73832         0.018031      0.000000     -0.086545
      1.37502      4.12507      5.21496         0.214319      0.000000      0.039239
      1.37502      4.12507      8.69159         0.009694      0.000000      0.008573
      1.37502      6.87512      1.73832         0.018031     -0.000000     -0.086545
      1.37502      6.87512      5.21496         0.214319      0.000000      0.039239
      1.37502      6.87512      8.69159         0.009694     -0.000000      0.008573
      4.12507      1.37502      1.73832        -0.018031      0.000000     -0.086545
      4.12507      1.37502      5.21496        -0.214319      0.000000      0.039239
      4.12507      1.37502      8.69159        -0.009694      0.000000      0.008573
      4.12507      4.12507      1.73832        -0.018031      0.000000     -0.086545
      4.12507      4.12507      5.21496        -0.214319      0.000000      0.039239
      4.12507      4.12507      8.69159        -0.009694      0.000000      0.008573
      4.12507      6.87512      1.73832        -0.018031     -0.000000     -0.086545
      4.12507      6.87512      5.21496        -0.214319      0.000000      0.039239
      4.12507      6.87512      8.69159        -0.009694     -0.000000      0.008573
      6.87512      1.37502      1.73832         0.000000      0.000000     -0.006334
      6.87512      1.37502      5.21496         0.000000      0.000000     -0.013946
      6.87512      1.37502      8.69159         0.000000      0.000000      0.097908
      6.87512      4.12507      1.73832         0.000000      0.000000     -0.006334
      6.87512      4.12507      5.21496         0.000000      0.000000     -0.013946
      6.87512      4.12507      8.69159         0.000000      0.000000      0.097908
      6.87512      6.87512      1.73832         0.000000      0.000000     -0.006334
      6.87512      6.87512      5.21496         0.000000     -0.000000     -0.013946
      6.87512      6.87512      8.69159         0.000000      0.000000      0.097908
 -----------------------------------------------------------------------------------
    total drift:                               -0.000000     -0.000000     -0.000043


--------------------------------------------------------------------------------------------------------



  FREE ENERGIE OF THE ION-ELECTRON SYSTEM (eV)
  ---------------------------------------------------
  free  energy   TOTEN  =      -356.38063736 eV

  energy  without entropy=     -356.36450722  energy(sigma->0) =     -356.37526065
 


--------------------------------------------------------------------------------------------------------


    POTLOK:  cpu time    0.8703: real time    0.8703


--------------------------------------------------------------------------------------------------------


     LOOP+:  cpu time 1737.9757: real time 1760.9205
    4ORBIT:  cpu time    0.0000: real time    0.0000
 


 total charge     
 
# of ion       s       p       d       tot
------------------------------------------
    1        0.405   0.427   0.000   0.832
    2        0.405   0.429   0.000   0.833
    3        0.405   0.429   0.000   0.834
    4        0.405   0.427   0.000   0.832
    5        0.405   0.429   0.000   0.833
    6        0.405   0.429   0.000   0.834
    7        0.405   0.427   0.000   0.832
    8        0.405   0.429   0.000   0.833
    9        0.405   0.429   0.000   0.834
   10        0.405   0.428   0.000   0.833
   11        0.404   0.427   0.000   0.831
   12        0.405   0.426   0.000   0.831
   13        0.405   0.428   0.000   0.833
   14        0.404   0.427   0.000   0.831
   15        0.405   0.426   0.000   0.831
   16        0.405   0.428   0.000   0.833
   17        0.404   0.427   0.000   0.831
   18        0.405   0.426   0.000   0.831
   19        0.405   0.426   0.000   0.832
   20        0.405   0.429   0.000   0.834
   21        0.405   0.429   0.000   0.834
   22        0.405   0.426   0.000   0.832
   23        0.405   0.429   0.000   0.834
   24        0.405   0.429   0.000   0.834
   25        0.405   0.426   0.000   0.832
   26        0.405   0.429   0.000   0.834
   27        0.405   0.429   0.000   0.834
   28        0.334   0.350   5.143   5.828
   29        0.333   0.353   5.131   5.817
   30        0.334   0.351   5.146   5.830
   31        0.334   0.350   5.143   5.828
   32        0.333   0.353   5.131   5.817
   33        0.334   0.351   5.146   5.830
   34        0.334   0.350   5.143   5.828
   35        0.333   0.353   5.131   5.817
   36        0.334   0.351   5.146   5.830
   37        0.334   0.351   5.128   5.813
   38        0.333   0.354   5.133   5.820
   39        0.334   0.351   5.126   5.811
   40        0.334   0.351   5.128   5.813
   41        0.333   0.354   5.133   5.820
   42        0.334   0.351   5.126   5.811
   43        0.334   0.351   5.128   5.813
   44        0.333   0.354   5.133   5.820
   45        0.334   0.351   5.126   5.811
   46        0.333   0.351   5.137   5.820
   47        0.331   0.355   5.136   5.822
   48        0.335   0.350   5.135   5.820
   49        0.333   0.351   5.137   5.820
   50        0.331   0.355   5.136   5.822
   51        0.335   0.350   5.135   5.820
   52        0.333   0.351   5.137   5.820
   53        0.331   0.355   5.136   5.822
   54        0.335   0.350   5.135   5.820
--------------------------------------------------
tot         19.936  21.049 138.647 179.632
 


 magnetization (x)
 
# of ion       s       p       d       tot
------------------------------------------
    1       -0.000   0.001   0.000   0.001
    2       -0.011  -0.020   0.000  -0.032
    3        0.010   0.020   0.000   0.030
    4       -0.000   0.001   0.000   0.001
    5       -0.011  -0.020   0.000  -0.032
    6        0.010   0.020   0.000   0.030
    7       -0.000   0.001   0.000   0.001
    8       -0.011  -0.020   0.000  -0.032
    9        0.010   0.020   0.000   0.030
   10       -0.000  -0.000   0.000  -0.000
   11       -0.021  -0.036   0.000  -0.057
   12        0.001   0.003   0.000   0.004
   13       -0.000  -0.000   0.000  -0.000
   14       -0.021  -0.036   0.000  -0.057
   15        0.001   0.003   0.000   0.004
   16       -0.000  -0.000   0.000  -0.000
   17       -0.021  -0.036   0.000  -0.057
   18        0.001   0.003   0.000   0.004
   19        0.000   0.001   0.000   0.001
   20       -0.011  -0.019   0.000  -0.031
   21        0.010   0.019   0.000   0.029
   22        0.000   0.001   0.000   0.001
   23       -0.011  -0.019   0.000  -0.031
   24        0.010   0.019   0.000   0.029
   25        0.000   0.001   0.000   0.001
   26       -0.011  -0.019   0.000  -0.031
   27        0.010   0.019   0.000   0.029
   28        0.017   0.020   2.358   2.396
   29        0.017   0.015   2.390   2.422
   30       -0.014  -0.017  -2.264  -2.295
   31        0.017   0.020   2.358   2.396
   32        0.017   0.015   2.390   2.422
   33       -0.014  -0.017  -2.264  -2.295
   34        0.017   0.020   2.358   2.396
   35        0.017   0.015   2.390   2.422
   36       -0.014  -0.017  -2.264  -2.295
   37        0.018   0.020   2.380   2.418
   38        0.017   0.015   2.388   2.419
   39       -0.015  -0.017  -2.288  -2.319
   40        0.018   0.020   2.380   2.418
   41        0.017   0.015   2.388   2.419
   42       -0.015  -0.017  -2.288  -2.319
   43        0.018   0.020   2.380   2.418
   44        0.017   0.015   2.388   2.419
   45       -0.015  -0.017  -2.288  -2.319
   46        0.014   0.018   2.256   2.288
   47       -0.016  -0.012  -2.245  -2.273
   48       -0.018  -0.019  -2.355  -2.392
   49        0.014   0.018   2.256   2.288
   50       -0.016  -0.012  -2.245  -2.273
   51       -0.018  -0.019  -2.355  -2.392
   52        0.014   0.018   2.256   2.288
   53       -0.016  -0.012  -2.245  -2.273
   54       -0.018  -0.019  -2.355  -2.392
--------------------------------------------------
tot         -0.009  -0.026   7.862   7.827
 

 total amount of memory used by VASP MPI-rank0   869586. kBytes
=======================================================================

   base      :      30000. kBytes
   nonl-proj :      28494. kBytes
   fftplans  :      31580. kBytes
   grid      :      21385. kBytes
   one-center:        435. kBytes
   wavefun   :     757692. kBytes
 
  
  
 General timing and accounting informations for this job:
 ========================================================
  
                  Total CPU time used (sec):     1769.291
                            User time (sec):     1743.746
                          System time (sec):       25.545
                         Elapsed time (sec):     1796.661
  
                   Maximum memory used (kb):     1036856.
                   Average memory used (kb):           0.
  
                          Minor page faults:       736010
                          Major page faults:           17
                 Voluntary context switches:         2817
