 vasp.5.4.4.18Apr17-6-g9f103f2a35 (build Dec 20 2018 12:05:58) complex          
  
 executed on             LinuxIFC date 2019.06.20  22:52:40
 running on   32 total cores
 distrk:  each k-point on    8 cores,    4 groups
 distr:  one band on NCORES_PER_BAND=   4 cores,    2 groups


--------------------------------------------------------------------------------------------------------


 INCAR:
 POTCAR:    PAW_PBE Al 04Jan2001                  
 POTCAR:    PAW_PBE Mn 06Sep2000                  

 ----------------------------------------------------------------------------- 
|                                                                             |
|           W    W    AA    RRRRR   N    N  II  N    N   GGGG   !!!           |
|           W    W   A  A   R    R  NN   N  II  NN   N  G    G  !!!           |
|           W    W  A    A  R    R  N N  N  II  N N  N  G       !!!           |
|           W WW W  AAAAAA  RRRRR   N  N N  II  N  N N  G  GGG   !            |
|           WW  WW  A    A  R   R   N   NN  II  N   NN  G    G                |
|           W    W  A    A  R    R  N    N  II  N    N   GGGG   !!!           |
|                                                                             |
|      You have enabled k-point parallelism (KPAR>1).                         |
|      This developmental code was originally  written by Paul Kent at ORNL,  |
|      and carefully double checked in Vienna.                                |
|      GW as well as linear response parallelism added by Martijn Marsman     |
|      and Georg Kresse.                                                      |
|      Carefully verify results versus KPAR=1.                                |
|      Report problems to Paul Kent and Vienna.                               |
|                                                                             |
 ----------------------------------------------------------------------------- 

 POTCAR:    PAW_PBE Al 04Jan2001                  
   VRHFIN =Al: s2p1                                                             
   LEXCH  = PE                                                                  
   EATOM  =    53.5387 eV,    3.9350 Ry                                         
                                                                                
   TITEL  = PAW_PBE Al 04Jan2001                                                
   LULTRA =        F    use ultrasoft PP ?                                      
   IUNSCR =        1    unscreen: 0-lin 1-nonlin 2-no                           
   RPACOR =    1.500    partial core radius                                     
   POMASS =   26.981; ZVAL   =    3.000    mass and valenz                      
   RCORE  =    1.900    outmost cutoff radius                                   
   RWIGS  =    2.650; RWIGS  =    1.402    wigner-seitz radius (au A)           
   ENMAX  =  240.300; ENMIN  =  180.225 eV                                      
   ICORE  =        2    local potential                                         
   LCOR   =        T    correct aug charges                                     
   LPAW   =        T    paw PP                                                  
   EAUG   =  291.052                                                            
   DEXC   =    0.000                                                            
   RMAX   =    1.939    core radius for proj-oper                               
   RAUG   =    1.300    factor for augmentation sphere                          
   RDEP   =    1.966    radius for radial grids                                 
   RDEPT  =    1.856    core radius for aug-charge                              
                                                                                
   Atomic configuration                                                         
    6 entries                                                                   
     n  l   j            E        occ.                                          
     1  0  0.50     -1511.1048   2.0000                                         
     2  0  0.50      -108.1629   2.0000                                         
     2  1  1.50       -69.6402   6.0000                                         
     3  0  0.50        -7.7528   2.0000                                         
     3  1  1.50        -2.7121   1.0000                                         
     3  2  2.50        -2.7212   0.0000                                         
   Description                                                                  
     l       E           TYP  RCUT    TYP  RCUT                                 
     0     -7.7528455     23  1.900                                             
     0     -3.3096929     23  1.900                                             
     1     -2.7120682     23  1.900                                             
     1     13.6058260     23  1.900                                             
     2     -2.7211652      7  1.900                                             
  local pseudopotential read in
  partial core-charges read in
  partial kinetic energy density read in
  atomic valenz-charges read in
  non local Contribution for L=           0  read in
    real space projection operators read in
  non local Contribution for L=           0  read in
    real space projection operators read in
  non local Contribution for L=           1  read in
    real space projection operators read in
  non local Contribution for L=           1  read in
    real space projection operators read in
    PAW grid and wavefunctions read in
 
   number of l-projection  operators is LMAX  =           4
   number of lm-projection operators is LMMAX =           8
 
 POTCAR:    PAW_PBE Mn 06Sep2000                  
   VRHFIN =Mn: d6 s1                                                            
   LEXCH  = PE                                                                  
   EATOM  =   416.7541 eV,   30.6306 Ry                                         
                                                                                
   TITEL  = PAW_PBE Mn 06Sep2000                                                
   LULTRA =        F    use ultrasoft PP ?                                      
   IUNSCR =        1    unscreen: 0-lin 1-nonlin 2-no                           
   RPACOR =    2.000    partial core radius                                     
   POMASS =   54.938; ZVAL   =    7.000    mass and valenz                      
   RCORE  =    2.300    outmost cutoff radius                                   
   RWIGS  =    2.500; RWIGS  =    1.323    wigner-seitz radius (au A)           
   ENMAX  =  269.864; ENMIN  =  202.398 eV                                      
   RCLOC  =    1.725    cutoff for local pot                                    
   LCOR   =        T    correct aug charges                                     
   LPAW   =        T    paw PP                                                  
   EAUG   =  500.711                                                            
   DEXC   =    0.000                                                            
   RMAX   =    2.343    core radius for proj-oper                               
   RAUG   =    1.300    factor for augmentation sphere                          
   RDEP   =    2.338    radius for radial grids                                 
   RDEPT  =    1.911    core radius for aug-charge                              
                                                                                
   Atomic configuration                                                         
    9 entries                                                                   
     n  l   j            E        occ.                                          
     1  0  0.50     -6424.8288   2.0000                                         
     2  0  0.50      -739.1154   2.0000                                         
     2  1  1.50      -625.3949   6.0000                                         
     3  0  0.50       -81.6100   2.0000                                         
     3  1  1.50       -50.4667   6.0000                                         
     3  2  2.50        -3.3745   6.0000                                         
     4  0  0.50        -4.1331   1.0000                                         
     4  1  0.50        -4.0817   0.0000                                         
     4  3  2.50        -1.3606   0.0000                                         
   Description                                                                  
     l       E           TYP  RCUT    TYP  RCUT                                 
     2     -3.3744664     23  2.300                                             
     2     -4.7350490     23  2.300                                             
     0     -4.1331408     23  2.300                                             
     0      7.6656614     23  2.300                                             
     1     -2.7211652     23  2.300                                             
     1     20.4087390     23  2.300                                             
  local pseudopotential read in
  partial core-charges read in
  partial kinetic energy density read in
  atomic valenz-charges read in
  non local Contribution for L=           2  read in
    real space projection operators read in
  non local Contribution for L=           2  read in
    real space projection operators read in
  non local Contribution for L=           0  read in
    real space projection operators read in
  non local Contribution for L=           0  read in
    real space projection operators read in
  non local Contribution for L=           1  read in
    real space projection operators read in
  non local Contribution for L=           1  read in
    real space projection operators read in
    PAW grid and wavefunctions read in
 
   number of l-projection  operators is LMAX  =           6
   number of lm-projection operators is LMMAX =          18
 

 ----------------------------------------------------------------------------- 
|                                                                             |
|  ADVICE TO THIS USER RUNNING 'VASP/VAMP'   (HEAR YOUR MASTER'S VOICE ...):  |
|                                                                             |
|      You have a (more or less) 'large supercell' and for larger cells       |
|      it might be more efficient to use real space projection opertators     |
|      So try LREAL= Auto  in the INCAR   file.                               |
|      Mind:          For very  accurate calculation you might also keep the  |
|      reciprocal projection scheme          (i.e. LREAL=.FALSE.)             |
|                                                                             |
 ----------------------------------------------------------------------------- 

  PAW_PBE Al 04Jan2001                  :
 energy of atom  1       EATOM=  -53.5387
 kinetic energy error for atom=    0.0005 (will be added to EATOM!!)
  PAW_PBE Mn 06Sep2000                  :
 energy of atom  2       EATOM= -416.7541
 kinetic energy error for atom=    0.0080 (will be added to EATOM!!)
 
 
 POSCAR: NewRef: 27, @ ['Mn', array([1.37502469, 
  positions in cartesian coordinates
  velocities in cartesian coordinates
  No initial velocities read in
 exchange correlation table for  LEXCH =        8
   RHO(1)=    0.500       N(1)  =     2000
   RHO(2)=  100.500       N(2)  =     4000
 


--------------------------------------------------------------------------------------------------------


 ion  position               nearest neighbor table
   1  0.000  0.000  0.000-  28 2.61  30 2.61  34 2.61  36 2.61  46 2.61  48 2.61  52 2.61  54 2.61
                             4 2.75  10 2.75   7 2.75  19 2.75
   2  0.000  0.000  0.333-  28 2.61  34 2.61  46 2.61  52 2.61  29 2.61  47 2.61  35 2.61  53 2.61
                             5 2.75  11 2.75   8 2.75  20 2.75
   3  0.000  0.000  0.667-  29 2.61  35 2.61  47 2.61  53 2.61  30 2.61  48 2.61  36 2.61  54 2.61
                             6 2.75  12 2.75   9 2.75  21 2.75
   4  0.000  0.333  0.000-  28 2.61  30 2.61  46 2.61  48 2.61  31 2.61  33 2.61  49 2.61  51 2.61
                            13 2.75   1 2.75   7 2.75  22 2.75
   5  0.000  0.333  0.333-  28 2.61  46 2.61  31 2.61  49 2.61  47 2.61  29 2.61  32 2.61  50 2.61
                            14 2.75   2 2.75   8 2.75  23 2.75
   6  0.000  0.333  0.667-  29 2.61  47 2.61  32 2.61  50 2.61  48 2.61  30 2.61  33 2.61  51 2.61
                            15 2.75   3 2.75   9 2.75  24 2.75
   7  0.000  0.667  0.000-  31 2.61  33 2.61  49 2.61  51 2.61  34 2.61  36 2.61  52 2.61  54 2.61
                             4 2.75  16 2.75   1 2.75  25 2.75
   8  0.000  0.667  0.333-  31 2.61  49 2.61  34 2.61  52 2.61  50 2.61  32 2.61  35 2.61  53 2.61
                             5 2.75  17 2.75   2 2.75  26 2.75
   9  0.000  0.667  0.667-  32 2.61  50 2.61  35 2.61  53 2.61  51 2.61  33 2.61  36 2.61  54 2.61
                             6 2.75  18 2.75   3 2.75  27 2.75
  10  0.333  0.000  0.000-  28 2.61  30 2.61  34 2.61  36 2.61  37 2.61  39 2.61  43 2.61  45 2.61
                            19 2.75   1 2.75  13 2.75  16 2.75
  11  0.333  0.000  0.333-  28 2.61  34 2.61  37 2.61  43 2.61  29 2.61  35 2.61  38 2.61  44 2.61
                            20 2.75   2 2.75  14 2.75  17 2.75
  12  0.333  0.000  0.667-  29 2.61  35 2.61  38 2.61  44 2.61  30 2.61  36 2.61  39 2.61  45 2.61
                            21 2.75   3 2.75  15 2.75  18 2.75
  13  0.333  0.333  0.000-  28 2.61  30 2.61  31 2.61  33 2.61  37 2.61  39 2.61  40 2.61  42 2.61
                             4 2.75  10 2.75  16 2.75  22 2.75
  14  0.333  0.333  0.333-  28 2.61  31 2.61  37 2.61  29 2.61  40 2.61  38 2.61  32 2.61  41 2.61
                             5 2.75  11 2.75  17 2.75  23 2.75
  15  0.333  0.333  0.667-  29 2.61  32 2.61  38 2.61  30 2.61  41 2.61  39 2.61  33 2.61  42 2.61
                             6 2.75  12 2.75  18 2.75  24 2.75
  16  0.333  0.667  0.000-  31 2.61  33 2.61  34 2.61  36 2.61  40 2.61  42 2.61  43 2.61  45 2.61
                            25 2.75   7 2.75  13 2.75  10 2.75
  17  0.333  0.667  0.333-  31 2.61  34 2.61  40 2.61  32 2.61  43 2.61  41 2.61  35 2.61  44 2.61
                            26 2.75   8 2.75  14 2.75  11 2.75
  18  0.333  0.667  0.667-  32 2.61  35 2.61  41 2.61  33 2.61  44 2.61  42 2.61  36 2.61  45 2.61
                            27 2.75   9 2.75  15 2.75  12 2.75
  19  0.667  0.000  0.000-  37 2.61  39 2.61  43 2.61  45 2.61  46 2.61  48 2.61  52 2.61  54 2.61
                            10 2.75  22 2.75   1 2.75  25 2.75
  20  0.667  0.000  0.333-  37 2.61  43 2.61  46 2.61  52 2.61  38 2.61  44 2.61  47 2.61  53 2.61
                            11 2.75  23 2.75   2 2.75  26 2.75
  21  0.667  0.000  0.667-  38 2.61  44 2.61  47 2.61  53 2.61  39 2.61  45 2.61  48 2.61  54 2.61
                            12 2.75  24 2.75   3 2.75  27 2.75
  22  0.667  0.333  0.000-  37 2.61  39 2.61  40 2.61  42 2.61  46 2.61  48 2.61  49 2.61  51 2.61
                            25 2.75  13 2.75  19 2.75   4 2.75
  23  0.667  0.333  0.333-  37 2.61  40 2.61  46 2.61  38 2.61  49 2.61  47 2.61  41 2.61  50 2.61
                            26 2.75  14 2.75  20 2.75   5 2.75
  24  0.667  0.333  0.667-  38 2.61  41 2.61  47 2.61  39 2.61  50 2.61  48 2.61  42 2.61  51 2.61
                            27 2.75  15 2.75  21 2.75   6 2.75
  25  0.667  0.667  0.000-  40 2.61  42 2.61  43 2.61  45 2.61  49 2.61  51 2.61  52 2.61  54 2.61
                            16 2.75  22 2.75  19 2.75   7 2.75
  26  0.667  0.667  0.333-  40 2.61  43 2.61  49 2.61  41 2.61  52 2.61  50 2.61  44 2.61  53 2.61
                            17 2.75  23 2.75  20 2.75   8 2.75
  27  0.667  0.667  0.667-  41 2.61  44 2.61  50 2.61  42 2.61  53 2.61  51 2.61  45 2.61  54 2.61
                            18 2.75  24 2.75  21 2.75   9 2.75
  28  0.167  0.167  0.167-  14 2.61  11 2.61   5 2.61  13 2.61   2 2.61  10 2.61   4 2.61   1 2.61
                            31 2.75  37 2.75  34 2.75  46 2.75
  29  0.167  0.167  0.500-  15 2.61  12 2.61   6 2.61  14 2.61   3 2.61  11 2.61   5 2.61   2 2.61
                            32 2.75  38 2.75  35 2.75  47 2.75
  30  0.167  0.167  0.833-  13 2.61  15 2.61  10 2.61  12 2.61   4 2.61   6 2.61   1 2.61   3 2.61
                            33 2.75  39 2.75  36 2.75  48 2.75
  31  0.167  0.500  0.167-  17 2.61  14 2.61   8 2.61  16 2.61   5 2.61  13 2.61   7 2.61   4 2.61
                            28 2.75  34 2.75  40 2.75  49 2.75
  32  0.167  0.500  0.500-  18 2.61  15 2.61   9 2.61  17 2.61   6 2.61  14 2.61   8 2.61   5 2.61
                            29 2.75  35 2.75  41 2.75  50 2.75
  33  0.167  0.500  0.833-  16 2.61  18 2.61  13 2.61  15 2.61   7 2.61   9 2.61   4 2.61   6 2.61
                            30 2.75  36 2.75  42 2.75  51 2.75
  34  0.167  0.833  0.167-  11 2.61  17 2.61   2 2.61   8 2.61  16 2.61  10 2.61   7 2.61   1 2.61
                            31 2.75  43 2.75  28 2.75  52 2.75
  35  0.167  0.833  0.500-  12 2.61  18 2.61   3 2.61   9 2.61  17 2.61  11 2.61   8 2.61   2 2.61
                            32 2.75  44 2.75  29 2.75  53 2.75
  36  0.167  0.833  0.833-  10 2.61  12 2.61  16 2.61  18 2.61   1 2.61   3 2.61   7 2.61   9 2.61
                            33 2.75  45 2.75  30 2.75  54 2.75
  37  0.500  0.167  0.167-  23 2.61  20 2.61  14 2.61  22 2.61  11 2.61  19 2.61  13 2.61  10 2.61
                            28 2.75  40 2.75  46 2.75  43 2.75
  38  0.500  0.167  0.500-  24 2.61  21 2.61  15 2.61  23 2.61  12 2.61  20 2.61  14 2.61  11 2.61
                            29 2.75  41 2.75  47 2.75  44 2.75
  39  0.500  0.167  0.833-  22 2.61  24 2.61  19 2.61  21 2.61  13 2.61  15 2.61  10 2.61  12 2.61
                            30 2.75  42 2.75  48 2.75  45 2.75
  40  0.500  0.500  0.167-  26 2.61  23 2.61  17 2.61  25 2.61  14 2.61  22 2.61  16 2.61  13 2.61
                            31 2.75  37 2.75  43 2.75  49 2.75
  41  0.500  0.500  0.500-  27 2.61  24 2.61  18 2.61  26 2.61  15 2.61  23 2.61  17 2.61  14 2.61
                            32 2.75  38 2.75  44 2.75  50 2.75
  42  0.500  0.500  0.833-  25 2.61  27 2.61  22 2.61  24 2.61  16 2.61  18 2.61  13 2.61  15 2.61
                            33 2.75  39 2.75  45 2.75  51 2.75
  43  0.500  0.833  0.167-  20 2.61  26 2.61  11 2.61  17 2.61  25 2.61  19 2.61  16 2.61  10 2.61
                            34 2.75  40 2.75  52 2.75  37 2.75
  44  0.500  0.833  0.500-  21 2.61  27 2.61  12 2.61  18 2.61  26 2.61  20 2.61  17 2.61  11 2.61
                            35 2.75  41 2.75  53 2.75  38 2.75
  45  0.500  0.833  0.833-  19 2.61  21 2.61  25 2.61  27 2.61  10 2.61  12 2.61  16 2.61  18 2.61
                            36 2.75  42 2.75  54 2.75  39 2.75
  46  0.833  0.167  0.167-   5 2.61  23 2.61  20 2.61   2 2.61  22 2.61   4 2.61  19 2.61   1 2.61
                            37 2.75  49 2.75  28 2.75  52 2.75
  47  0.833  0.167  0.500-   6 2.61  24 2.61  21 2.61   3 2.61  23 2.61   5 2.61  20 2.61   2 2.61
                            38 2.75  50 2.75  29 2.75  53 2.75
  48  0.833  0.167  0.833-   4 2.61   6 2.61  22 2.61  24 2.61  19 2.61  21 2.61   1 2.61   3 2.61
                            39 2.75  51 2.75  30 2.75  54 2.75
  49  0.833  0.500  0.167-   8 2.61  26 2.61  23 2.61   5 2.61  25 2.61   7 2.61  22 2.61   4 2.61
                            40 2.75  46 2.75  52 2.75  31 2.75
  50  0.833  0.500  0.500-   9 2.61  27 2.61  24 2.61   6 2.61  26 2.61   8 2.61  23 2.61   5 2.61
                            41 2.75  47 2.75  53 2.75  32 2.75
  51  0.833  0.500  0.833-   7 2.61   9 2.61  25 2.61  27 2.61  22 2.61  24 2.61   4 2.61   6 2.61
                            42 2.75  48 2.75  54 2.75  33 2.75
  52  0.833  0.833  0.167-   2 2.61   8 2.61  20 2.61  26 2.61  19 2.61   7 2.61  25 2.61   1 2.61
                            43 2.75  49 2.75  46 2.75  34 2.75
  53  0.833  0.833  0.500-   3 2.61   9 2.61  21 2.61  27 2.61  20 2.61   8 2.61  26 2.61   2 2.61
                            44 2.75  50 2.75  47 2.75  35 2.75
  54  0.833  0.833  0.833-   1 2.61   3 2.61   7 2.61   9 2.61  19 2.61  21 2.61  25 2.61  27 2.61
                            45 2.75  51 2.75  48 2.75  36 2.75
 
  LATTYP: Found a simple tetragonal cell.
 ALAT       =     8.2501481662
 C/A-ratio  =     1.2642089792
  
  Lattice vectors:
  
 A1 = (   8.2501481662,   0.0000000000,   0.0000000000)
 A2 = (   0.0000000000,   8.2501481662,   0.0000000000)
 A3 = (   0.0000000000,   0.0000000000,  10.4299113916)


Analysis of symmetry for initial positions (statically):
=====================================================================
 Subroutine PRICEL returns following result:
 
  LATTYP: Found a simple tetragonal cell.
 ALAT       =     2.7500493888
 C/A-ratio  =     1.2642089792
  
  Lattice vectors:
  
 A1 = (   2.7500493888,   0.0000000000,   0.0000000000)
 A2 = (   0.0000000000,   2.7500493888,   0.0000000000)
 A3 = (   0.0000000000,   0.0000000000,   3.4766371306)
 
  27 primitive cells build up your supercell.
 

 Routine SETGRP: Setting up the symmetry group for a 
 simple tetragonal supercell.


 Subroutine GETGRP returns: Found 16 space group operations
 (whereof 16 operations were pure point group operations)
 out of a pool of 16 trial point group operations.


The static configuration has the point symmetry D_4h.


Analysis of symmetry for dynamics (positions and initial velocities):
=====================================================================
 Subroutine PRICEL returns following result:
 
  LATTYP: Found a simple tetragonal cell.
 ALAT       =     2.7500493888
 C/A-ratio  =     1.2642089792
  
  Lattice vectors:
  
 A1 = (   2.7500493888,   0.0000000000,   0.0000000000)
 A2 = (   0.0000000000,   2.7500493888,   0.0000000000)
 A3 = (   0.0000000000,   0.0000000000,   3.4766371306)
 
  27 primitive cells build up your supercell.
 

 Routine SETGRP: Setting up the symmetry group for a 
 simple tetragonal supercell.


 Subroutine GETGRP returns: Found 16 space group operations
 (whereof 16 operations were pure point group operations)
 out of a pool of 16 trial point group operations.


The dynamic configuration has the point symmetry D_4h.


Analysis of structural, dynamic, and magnetic symmetry:
=====================================================================
 Subroutine PRICEL returns following result:
 
  LATTYP: Found a simple orthorhombic cell.
 ALAT       =     2.7500493888
 B/A-ratio  =     2.9999999999
 C/A-ratio  =     3.7926269376
  
  Lattice vectors:
  
 A1 = (   0.0000000000,  -2.7500493888,   0.0000000000)
 A2 = (  -8.2501481662,   0.0000000000,   0.0000000000)
 A3 = (   0.0000000000,   0.0000000000, -10.4299113916)
 
   3 primitive cells build up your supercell.
 

 Routine SETGRP: Setting up the symmetry group for a 
 simple tetragonal supercell.


 Subroutine GETGRP returns: Found  4 space group operations
 (whereof  2 operations were pure point group operations)
 out of a pool of 16 trial point group operations.


The magnetic configuration has the point symmetry C_1h.
 The point group associated with its full space group is C_2v.


 Subroutine INISYM returns: Found  4 space group operations
 (whereof  2 operations are pure point group operations),
 and found     3 'primitive' translations

 
 
 KPOINTS: automatic KPOINTS                       

Automatic generation of k-mesh.
 generate k-points for:    5    5    4
Space group operators:
 irot       det(A)        alpha          n_x          n_y          n_z        tau_x        tau_y        tau_z
    1     1.000000     0.000001     1.000000     0.000000     0.000000     0.000000     0.000000     0.000000
    2    -1.000000   180.000000     0.000000     1.000000     0.000000     0.000000     0.000000     0.000000
    3     1.000000   180.000000     0.000000     0.000000     1.000000    -0.666667     0.000000     0.000000
    4    -1.000000   180.000000     1.000000     0.000000     0.000000    -0.666667     0.000000     0.000000
 
 Subroutine IBZKPT returns following result:
 ===========================================
 
 Found     27 irreducible k-points:
 
 Following reciprocal coordinates:
            Coordinates               Weight
  0.000000  0.000000  0.000000      1.000000
  0.200000  0.000000  0.000000      2.000000
  0.400000  0.000000  0.000000      2.000000
  0.000000  0.200000  0.000000      2.000000
  0.200000  0.200000  0.000000      4.000000
  0.400000  0.200000  0.000000      4.000000
  0.000000  0.400000  0.000000      2.000000
  0.200000  0.400000  0.000000      4.000000
  0.400000  0.400000  0.000000      4.000000
  0.000000  0.000000  0.250000      2.000000
  0.200000  0.000000  0.250000      4.000000
  0.400000  0.000000  0.250000      4.000000
  0.000000  0.200000  0.250000      4.000000
  0.200000  0.200000  0.250000      8.000000
  0.400000  0.200000  0.250000      8.000000
  0.000000  0.400000  0.250000      4.000000
  0.200000  0.400000  0.250000      8.000000
  0.400000  0.400000  0.250000      8.000000
  0.000000  0.000000  0.500000      1.000000
  0.200000  0.000000  0.500000      2.000000
  0.400000  0.000000  0.500000      2.000000
  0.000000  0.200000  0.500000      2.000000
  0.200000  0.200000  0.500000      4.000000
  0.400000  0.200000  0.500000      4.000000
  0.000000  0.400000  0.500000      2.000000
  0.200000  0.400000  0.500000      4.000000
  0.400000  0.400000  0.500000      4.000000
 
 Following cartesian coordinates:
            Coordinates               Weight
  0.000000  0.000000  0.000000      1.000000
  0.024242  0.000000  0.000000      2.000000
  0.048484  0.000000  0.000000      2.000000
  0.000000  0.024242  0.000000      2.000000
  0.024242  0.024242  0.000000      4.000000
  0.048484  0.024242  0.000000      4.000000
  0.000000  0.048484  0.000000      2.000000
  0.024242  0.048484  0.000000      4.000000
  0.048484  0.048484  0.000000      4.000000
  0.000000  0.000000  0.023970      2.000000
  0.024242  0.000000  0.023970      4.000000
  0.048484  0.000000  0.023970      4.000000
  0.000000  0.024242  0.023970      4.000000
  0.024242  0.024242  0.023970      8.000000
  0.048484  0.024242  0.023970      8.000000
  0.000000  0.048484  0.023970      4.000000
  0.024242  0.048484  0.023970      8.000000
  0.048484  0.048484  0.023970      8.000000
  0.000000  0.000000  0.047939      1.000000
  0.024242  0.000000  0.047939      2.000000
  0.048484  0.000000  0.047939      2.000000
  0.000000  0.024242  0.047939      2.000000
  0.024242  0.024242  0.047939      4.000000
  0.048484  0.024242  0.047939      4.000000
  0.000000  0.048484  0.047939      2.000000
  0.024242  0.048484  0.047939      4.000000
  0.048484  0.048484  0.047939      4.000000
 


--------------------------------------------------------------------------------------------------------




 Dimension of arrays:
   k-points           NKPTS =     27   k-points in BZ     NKDIM =     27   number of bands    NBANDS=    168
   number of dos      NEDOS =    301   number of ions     NIONS =     54
   non local maximal  LDIM  =      6   non local SUM 2l+1 LMDIM =     18
   total plane-waves  NPLWV = 204120
   max r-space proj   IRMAX =      1   max aug-charges    IRDMAX=  89713
   dimension x,y,z NGX =    54 NGY =   54 NGZ =   70
   dimension x,y,z NGXF=   108 NGYF=  108 NGZF=  140
   support grid    NGXF=   216 NGYF=  216 NGZF=  280
   ions per type =              27  27
   NGX,Y,Z   is equivalent  to a cutoff of  10.88, 10.88, 11.16 a.u.
   NGXF,Y,Z  is equivalent  to a cutoff of  21.76, 21.76, 22.32 a.u.

 SYSTEM =  AlMn_pv                                 
 POSCAR =  NewRef: 27, @ ['Mn', array([1.37502469, 

 Startparameter for this run:
   NWRITE =      2    write-flag & timer
   PREC   = accura    normal or accurate (medium, high low for compatibility)
   ISTART =      0    job   : 0-new  1-cont  2-samecut
   ICHARG =      2    charge: 1-file 2-atom 10-const
   ISPIN  =      2    spin polarized calculation?
   LNONCOLLINEAR =      F non collinear calculations
   LSORBIT =      F    spin-orbit coupling
   INIWAV =      1    electr: 0-lowe 1-rand  2-diag
   LASPH  =      F    aspherical Exc in radial PAW
   METAGGA=      F    non-selfconsistent MetaGGA calc.

 Electronic Relaxation 1
   ENCUT  =  404.8 eV  29.75 Ry    5.45 a.u.  13.53 13.53 17.11*2*pi/ulx,y,z
   ENINI  =  404.8     initial cutoff
   ENAUG  =  500.7 eV  augmentation charge cutoff
   NELM   =    100;   NELMIN=  4; NELMDL= -8     # of ELM steps 
   EDIFF  = 0.1E-06   stopping-criterion for ELM
   LREAL  =      F    real-space projection
   NLSPLINE    = F    spline interpolate recip. space projectors
   LCOMPAT=      F    compatible to vasp.4.4
   GGA_COMPAT  = T    GGA compatible to vasp.4.4-vasp.4.6
   LMAXPAW     = -100 max onsite density
   LMAXMIX     =    2 max onsite mixed and CHGCAR
   VOSKOWN=      0    Vosko Wilk Nusair interpolation
   ROPT   =    0.00000   0.00000
 Ionic relaxation
   EDIFFG = 0.1E-05   stopping-criterion for IOM
   NSW    =      0    number of steps for IOM
   NBLOCK =      1;   KBLOCK =      1    inner block; outer block 
   IBRION =     -1    ionic relax: 0-MD 1-quasi-New 2-CG
   NFREE  =      0    steps in history (QN), initial steepest desc. (CG)
   ISIF   =      2    stress and relaxation
   IWAVPR =     10    prediction:  0-non 1-charg 2-wave 3-comb
   ISYM   =      2    0-nonsym 1-usesym 2-fastsym
   LCORR  =      T    Harris-Foulkes like correction to forces

   POTIM  = 0.2000    time-step for ionic-motion
   TEIN   =    0.0    initial temperature
   TEBEG  =    0.0;   TEEND  =   0.0 temperature during run
   SMASS  =  -3.00    Nose mass-parameter (am)
   estimated Nose-frequenzy (Omega)   =  0.10E-29 period in steps =****** mass=  -0.156E-26a.u.
   SCALEE = 1.0000    scale energy and forces
   NPACO  =    256;   APACO  = 16.0  distance and # of slots for P.C.
   PSTRESS=    0.0 pullay stress

  Mass of Ions in am
   POMASS =  26.98 54.94
  Ionic Valenz
   ZVAL   =   3.00  7.00
  Atomic Wigner-Seitz radii
   RWIGS  =  -1.00 -1.00
  virtual crystal weights 
   VCA    =   1.00  1.00
   NELECT =     270.0000    total number of electrons
   NUPDOWN=      -1.0000    fix difference up-down

 DOS related values:
   EMIN   =  10.00;   EMAX   =-10.00  energy-range for DOS
   EFERMI =   0.00
   ISMEAR =     1;   SIGMA  =   0.20  broadening in eV -4-tet -1-fermi 0-gaus

 Electronic relaxation 2 (details)
   IALGO  =     58    algorithm
   LDIAG  =      T    sub-space diagonalisation (order eigenvalues)
   LSUBROT=      F    optimize rotation matrix (better conditioning)
   TURBO    =      0    0=normal 1=particle mesh
   IRESTART =      0    0=no restart 2=restart with 2 vectors
   NREBOOT  =      0    no. of reboots
   NMIN     =      0    reboot dimension
   EREF     =   0.00    reference energy to select bands
   IMIX   =      4    mixing-type and parameters
     AMIX     =   0.40;   BMIX     =  1.00
     AMIX_MAG =   1.60;   BMIX_MAG =  1.00
     AMIN     =   0.10
     WC   =   100.;   INIMIX=   1;  MIXPRE=   1;  MAXMIX= -45

 Intra band minimization:
   WEIMIN = 0.0000     energy-eigenvalue tresh-hold
   EBREAK =  0.15E-09  absolut break condition
   DEPER  =   0.30     relativ break condition  

   TIME   =   0.40     timestep for ELM

  volume/ion in A,a.u.               =      13.15        88.72
  Fermi-wavevector in a.u.,A,eV,Ry     =   1.186118  2.241439 19.141722  1.406877
  Thomas-Fermi vector in A             =   2.322298
 
 Write flags
   LWAVE        =      F    write WAVECAR
   LDOWNSAMPLE  =      F    k-point downsampling of WAVECAR
   LCHARG       =      F    write CHGCAR
   LVTOT        =      F    write LOCPOT, total local potential
   LVHAR        =      F    write LOCPOT, Hartree potential only
   LELF         =      F    write electronic localiz. function (ELF)
   LORBIT       =     10    0 simple, 1 ext, 2 COOP (PROOUT), +10 PAW based schemes


 Dipole corrections
   LMONO  =      F    monopole corrections only (constant potential shift)
   LDIPOL =      F    correct potential (dipole corrections)
   IDIPOL =      0    1-x, 2-y, 3-z, 4-all directions 
   EPSILON=  1.0000000 bulk dielectric constant

 Exchange correlation treatment:
   GGA     =    --    GGA type
   LEXCH   =     8    internal setting for exchange type
   VOSKOWN=      0    Vosko Wilk Nusair interpolation
   LHFCALC =     F    Hartree Fock is set to
   LHFONE  =     F    Hartree Fock one center treatment
   AEXX    =    0.0000 exact exchange contribution

 Linear response parameters
   LEPSILON=     F    determine dielectric tensor
   LRPA    =     F    only Hartree local field effects (RPA)
   LNABLA  =     F    use nabla operator in PAW spheres
   LVEL    =     F    velocity operator in full k-point grid
   LINTERFAST=   F  fast interpolation
   KINTER  =     0    interpolate to denser k-point grid
   CSHIFT  =0.1000    complex shift for real part using Kramers Kronig
   OMEGAMAX=  -1.0    maximum frequency
   DEG_THRESHOLD= 0.2000000E-02 threshold for treating states as degnerate
   RTIME   =   -0.100 relaxation time in fs
  (WPLASMAI=    0.000 imaginary part of plasma frequency in eV, 0.658/RTIME)
   DFIELD  = 0.0000000 0.0000000 0.0000000 field for delta impulse in time
 
 Orbital magnetization related:
   ORBITALMAG=     F  switch on orbital magnetization
   LCHIMAG   =     F  perturbation theory with respect to B field
   DQ        =  0.001000  dq finite difference perturbation B field
   LLRAUG    =     F  two centre corrections for induced B field



--------------------------------------------------------------------------------------------------------


 Static calculation
 charge density and potential will be updated during run
 spin polarized calculation
 Conjugate gradient for all bands (Freysoldt, et al. PRB 79, 241103 (2009))
 preconditioned conjugated gradient                                        
 perform sub-space diagonalisation
    before iterative eigenvector-optimisation
 modified Broyden-mixing scheme, WC =      100.0
 initial mixing is a Kerker type mixing with AMIX =  0.4000 and BMIX =      1.0000
 Hartree-type preconditioning will be used
 using additional bands           33
 reciprocal scheme for non local part
 use partial core corrections
 no Harris-corrections to forces 
 use gradient corrections 
 use of overlap-Matrix (Vanderbilt PP)
 Methfessel and Paxton  Order N= 1 SIGMA  =   0.20


--------------------------------------------------------------------------------------------------------


  energy-cutoff  :      404.80
  volume of cell :      709.91
      direct lattice vectors                 reciprocal lattice vectors
     8.250148166  0.000000000  0.000000000     0.121209944  0.000000000  0.000000000
     0.000000000  8.250148166  0.000000000     0.000000000  0.121209944  0.000000000
     0.000000000  0.000000000 10.429911392     0.000000000  0.000000000  0.095878092

  length of vectors
     8.250148166  8.250148166 10.429911392     0.121209944  0.121209944  0.095878092


 
 k-points in units of 2pi/SCALE and weight: automatic KPOINTS                       
   0.00000000  0.00000000  0.00000000       0.010
   0.02424199  0.00000000  0.00000000       0.020
   0.04848398  0.00000000  0.00000000       0.020
   0.00000000  0.02424199  0.00000000       0.020
   0.02424199  0.02424199  0.00000000       0.040
   0.04848398  0.02424199  0.00000000       0.040
   0.00000000  0.04848398  0.00000000       0.020
   0.02424199  0.04848398  0.00000000       0.040
   0.04848398  0.04848398  0.00000000       0.040
   0.00000000  0.00000000  0.02396952       0.020
   0.02424199  0.00000000  0.02396952       0.040
   0.04848398  0.00000000  0.02396952       0.040
   0.00000000  0.02424199  0.02396952       0.040
   0.02424199  0.02424199  0.02396952       0.080
   0.04848398  0.02424199  0.02396952       0.080
   0.00000000  0.04848398  0.02396952       0.040
   0.02424199  0.04848398  0.02396952       0.080
   0.04848398  0.04848398  0.02396952       0.080
   0.00000000  0.00000000  0.04793905       0.010
   0.02424199  0.00000000  0.04793905       0.020
   0.04848398  0.00000000  0.04793905       0.020
   0.00000000  0.02424199  0.04793905       0.020
   0.02424199  0.02424199  0.04793905       0.040
   0.04848398  0.02424199  0.04793905       0.040
   0.00000000  0.04848398  0.04793905       0.020
   0.02424199  0.04848398  0.04793905       0.040
   0.04848398  0.04848398  0.04793905       0.040
 
 k-points in reciprocal lattice and weights: automatic KPOINTS                       
   0.00000000  0.00000000  0.00000000       0.010
   0.20000000  0.00000000  0.00000000       0.020
   0.40000000  0.00000000  0.00000000       0.020
   0.00000000  0.20000000  0.00000000       0.020
   0.20000000  0.20000000  0.00000000       0.040
   0.40000000  0.20000000  0.00000000       0.040
   0.00000000  0.40000000  0.00000000       0.020
   0.20000000  0.40000000  0.00000000       0.040
   0.40000000  0.40000000  0.00000000       0.040
   0.00000000  0.00000000  0.25000000       0.020
   0.20000000  0.00000000  0.25000000       0.040
   0.40000000  0.00000000  0.25000000       0.040
   0.00000000  0.20000000  0.25000000       0.040
   0.20000000  0.20000000  0.25000000       0.080
   0.40000000  0.20000000  0.25000000       0.080
   0.00000000  0.40000000  0.25000000       0.040
   0.20000000  0.40000000  0.25000000       0.080
   0.40000000  0.40000000  0.25000000       0.080
   0.00000000  0.00000000  0.50000000       0.010
   0.20000000  0.00000000  0.50000000       0.020
   0.40000000  0.00000000  0.50000000       0.020
   0.00000000  0.20000000  0.50000000       0.020
   0.20000000  0.20000000  0.50000000       0.040
   0.40000000  0.20000000  0.50000000       0.040
   0.00000000  0.40000000  0.50000000       0.020
   0.20000000  0.40000000  0.50000000       0.040
   0.40000000  0.40000000  0.50000000       0.040
 
 position of ions in fractional coordinates (direct lattice) 
   0.00000000  0.00000000  0.00000000
   0.00000000  0.00000000  0.33333333
   0.00000000  0.00000000  0.66666667
   0.00000000  0.33333333  0.00000000
   0.00000000  0.33333333  0.33333333
   0.00000000  0.33333333  0.66666667
   0.00000000  0.66666667  0.00000000
   0.00000000  0.66666667  0.33333333
   0.00000000  0.66666667  0.66666667
   0.33333333  0.00000000  0.00000000
   0.33333333  0.00000000  0.33333333
   0.33333333  0.00000000  0.66666667
   0.33333333  0.33333333  0.00000000
   0.33333333  0.33333333  0.33333333
   0.33333333  0.33333333  0.66666667
   0.33333333  0.66666667  0.00000000
   0.33333333  0.66666667  0.33333333
   0.33333333  0.66666667  0.66666667
   0.66666667  0.00000000  0.00000000
   0.66666667  0.00000000  0.33333333
   0.66666667  0.00000000  0.66666667
   0.66666667  0.33333333  0.00000000
   0.66666667  0.33333333  0.33333333
   0.66666667  0.33333333  0.66666667
   0.66666667  0.66666667  0.00000000
   0.66666667  0.66666667  0.33333333
   0.66666667  0.66666667  0.66666667
   0.16666667  0.16666667  0.16666667
   0.16666667  0.16666667  0.50000000
   0.16666667  0.16666667  0.83333333
   0.16666667  0.50000000  0.16666667
   0.16666667  0.50000000  0.50000000
   0.16666667  0.50000000  0.83333333
   0.16666667  0.83333333  0.16666667
   0.16666667  0.83333333  0.50000000
   0.16666667  0.83333333  0.83333333
   0.50000000  0.16666667  0.16666667
   0.50000000  0.16666667  0.50000000
   0.50000000  0.16666667  0.83333333
   0.50000000  0.50000000  0.16666667
   0.50000000  0.50000000  0.50000000
   0.50000000  0.50000000  0.83333333
   0.50000000  0.83333333  0.16666667
   0.50000000  0.83333333  0.50000000
   0.50000000  0.83333333  0.83333333
   0.83333333  0.16666667  0.16666667
   0.83333333  0.16666667  0.50000000
   0.83333333  0.16666667  0.83333333
   0.83333333  0.50000000  0.16666667
   0.83333333  0.50000000  0.50000000
   0.83333333  0.50000000  0.83333333
   0.83333333  0.83333333  0.16666667
   0.83333333  0.83333333  0.50000000
   0.83333333  0.83333333  0.83333333
 
 position of ions in cartesian coordinates  (Angst):
   0.00000000  0.00000000  0.00000000
   0.00000000  0.00000000  3.47663713
   0.00000000  0.00000000  6.95327426
   0.00000000  2.75004939  0.00000000
   0.00000000  2.75004939  3.47663713
   0.00000000  2.75004939  6.95327426
   0.00000000  5.50009878  0.00000000
   0.00000000  5.50009878  3.47663713
   0.00000000  5.50009878  6.95327426
   2.75004939  0.00000000  0.00000000
   2.75004939  0.00000000  3.47663713
   2.75004939  0.00000000  6.95327426
   2.75004939  2.75004939  0.00000000
   2.75004939  2.75004939  3.47663713
   2.75004939  2.75004939  6.95327426
   2.75004939  5.50009878  0.00000000
   2.75004939  5.50009878  3.47663713
   2.75004939  5.50009878  6.95327426
   5.50009878  0.00000000  0.00000000
   5.50009878  0.00000000  3.47663713
   5.50009878  0.00000000  6.95327426
   5.50009878  2.75004939  0.00000000
   5.50009878  2.75004939  3.47663713
   5.50009878  2.75004939  6.95327426
   5.50009878  5.50009878  0.00000000
   5.50009878  5.50009878  3.47663713
   5.50009878  5.50009878  6.95327426
   1.37502469  1.37502469  1.73831857
   1.37502469  1.37502469  5.21495570
   1.37502469  1.37502469  8.69159283
   1.37502469  4.12507408  1.73831857
   1.37502469  4.12507408  5.21495570
   1.37502469  4.12507408  8.69159283
   1.37502469  6.87512347  1.73831857
   1.37502469  6.87512347  5.21495570
   1.37502469  6.87512347  8.69159283
   4.12507408  1.37502469  1.73831857
   4.12507408  1.37502469  5.21495570
   4.12507408  1.37502469  8.69159283
   4.12507408  4.12507408  1.73831857
   4.12507408  4.12507408  5.21495570
   4.12507408  4.12507408  8.69159283
   4.12507408  6.87512347  1.73831857
   4.12507408  6.87512347  5.21495570
   4.12507408  6.87512347  8.69159283
   6.87512347  1.37502469  1.73831857
   6.87512347  1.37502469  5.21495570
   6.87512347  1.37502469  8.69159283
   6.87512347  4.12507408  1.73831857
   6.87512347  4.12507408  5.21495570
   6.87512347  4.12507408  8.69159283
   6.87512347  6.87512347  1.73831857
   6.87512347  6.87512347  5.21495570
   6.87512347  6.87512347  8.69159283
 


--------------------------------------------------------------------------------------------------------


 k-point  1 :   0.0000 0.0000 0.0000  plane waves:   13099
 k-point  2 :   0.2000 0.0000 0.0000  plane waves:   13101
 k-point  3 :   0.4000 0.0000 0.0000  plane waves:   13111
 k-point  4 :   0.0000 0.2000 0.0000  plane waves:   13101
 k-point  5 :   0.2000 0.2000 0.0000  plane waves:   13137
 k-point  6 :   0.4000 0.2000 0.0000  plane waves:   13119
 k-point  7 :   0.0000 0.4000 0.0000  plane waves:   13111
 k-point  8 :   0.2000 0.4000 0.0000  plane waves:   13119
 k-point  9 :   0.4000 0.4000 0.0000  plane waves:   13129
 k-point 10 :   0.0000 0.0000 0.2500  plane waves:   13134
 k-point 11 :   0.2000 0.0000 0.2500  plane waves:   13149
 k-point 12 :   0.4000 0.0000 0.2500  plane waves:   13119
 k-point 13 :   0.0000 0.2000 0.2500  plane waves:   13149
 k-point 14 :   0.2000 0.2000 0.2500  plane waves:   13145
 k-point 15 :   0.4000 0.2000 0.2500  plane waves:   13134
 k-point 16 :   0.0000 0.4000 0.2500  plane waves:   13119
 k-point 17 :   0.2000 0.4000 0.2500  plane waves:   13134
 k-point 18 :   0.4000 0.4000 0.2500  plane waves:   13108
 k-point 19 :   0.0000 0.0000 0.5000  plane waves:   13186
 k-point 20 :   0.2000 0.0000 0.5000  plane waves:   13124
 k-point 21 :   0.4000 0.0000 0.5000  plane waves:   13152
 k-point 22 :   0.0000 0.2000 0.5000  plane waves:   13124
 k-point 23 :   0.2000 0.2000 0.5000  plane waves:   13136
 k-point 24 :   0.4000 0.2000 0.5000  plane waves:   13128
 k-point 25 :   0.0000 0.4000 0.5000  plane waves:   13152
 k-point 26 :   0.2000 0.4000 0.5000  plane waves:   13128
 k-point 27 :   0.4000 0.4000 0.5000  plane waves:   13112

 maximum and minimum number of plane-waves per node :      3304     3246

 maximum number of plane-waves:     13186
 maximum index in each direction: 
   IXMAX=   13   IYMAX=   13   IZMAX=   17
   IXMIN=  -13   IYMIN=  -13   IZMIN=  -17


 parallel 3D FFT for wavefunctions:
    minimum data exchange during FFTs selected (reduces bandwidth)
 parallel 3D FFT for charge:
    minimum data exchange during FFTs selected (reduces bandwidth)


 total amount of memory used by VASP MPI-rank0   869586. kBytes
=======================================================================

   base      :      30000. kBytes
   nonl-proj :      28494. kBytes
   fftplans  :      31580. kBytes
   grid      :      21385. kBytes
   one-center:        435. kBytes
   wavefun   :     757692. kBytes
 
     INWAV:  cpu time    0.0000: real time    0.0000
 Broyden mixing: mesh for mixing (old mesh)
   NGX = 27   NGY = 27   NGZ = 35
  (NGX  =108   NGY  =108   NGZ  =140)
  gives a total of  25515 points

 initial charge density was supplied:
 charge density of overlapping atoms calculated
 number of electron     270.0000000 magnetization       9.0000000
 keeping initial charge density in first step


--------------------------------------------------------------------------------------------------------


 Maximum index for augmentation-charges        10967 (set IRDMAX)


--------------------------------------------------------------------------------------------------------


 First call to EWALD:  gamma=   0.199
 Maximum number of real-space cells 3x 3x 2
 Maximum number of reciprocal cells 3x 3x 3

    FEWALD:  cpu time    0.0024: real time    0.0024


--------------------------------------- Iteration      1(   1)  ---------------------------------------


    POTLOK:  cpu time    0.3948: real time    0.3956
    SETDIJ:  cpu time    0.4557: real time    0.4563
    TRIAL :  cpu time   29.7421: real time   30.0506
    CORREC:  cpu time    0.0052: real time    0.0060
    --------------------------------------------
      LOOP:  cpu time   30.8552: real time   31.1732

 eigenvalue-minimisations  : 18144
 total energy-change (2. order) : 0.2047947E+04  (-0.8801475E+04)
 number of electron     270.0000000 magnetization       9.0000000
 augmentation part      270.0000000 magnetization       9.0000000

 Free energy of the ion-electron system (eV)
  ---------------------------------------------------
  alpha Z        PSCENC =       798.38614055
  Ewald energy   TEWEN  =    -12901.57693327
  -Hartree energ DENC   =     -2855.60785864
  -exchange      EXHF   =         0.00000000
  -V(xc)+E(xc)   XCENC  =      -996.08226082
  PAW double counting   =     12741.82587617   -11476.22345381
  entropy T*S    EENTRO =         0.00755421
  eigenvalues    EBANDS =      4039.54352559
  atomic energy  EATOM  =     12697.67401269
  ---------------------------------------------------
  free energy    TOTEN  =      2047.94660266 eV

  energy without entropy =     2047.93904845  energy(sigma->0) =     2047.94408459


--------------------------------------------------------------------------------------------------------




--------------------------------------- Iteration      1(   2)  ---------------------------------------


    TRIAL :  cpu time   29.9080: real time   30.7797
    CORREC:  cpu time    0.0067: real time    0.0067
    --------------------------------------------
      LOOP:  cpu time   29.9174: real time   30.7892

 eigenvalue-minimisations  : 18144
 total energy-change (2. order) :-0.2127024E+04  (-0.2078677E+04)
 number of electron     270.0000000 magnetization       9.0000000
 augmentation part      270.0000000 magnetization       9.0000000

 Free energy of the ion-electron system (eV)
  ---------------------------------------------------
  alpha Z        PSCENC =       798.38614055
  Ewald energy   TEWEN  =    -12901.57693327
  -Hartree energ DENC   =     -2855.60785864
  -exchange      EXHF   =         0.00000000
  -V(xc)+E(xc)   XCENC  =      -996.08226082
  PAW double counting   =     12741.82587617   -11476.22345381
  entropy T*S    EENTRO =        -0.00645558
  eigenvalues    EBANDS =      1912.53320468
  atomic energy  EATOM  =     12697.67401269
  ---------------------------------------------------
  free energy    TOTEN  =       -79.07772804 eV

  energy without entropy =      -79.07127246  energy(sigma->0) =      -79.07557618


--------------------------------------------------------------------------------------------------------




--------------------------------------- Iteration      1(   3)  ---------------------------------------


    TRIAL :  cpu time   41.3748: real time   41.6283
    CORREC:  cpu time    0.0076: real time    0.0084
    --------------------------------------------
      LOOP:  cpu time   41.3833: real time   41.6398

 eigenvalue-minimisations  : 27296
 total energy-change (2. order) :-0.2720079E+03  (-0.2431040E+03)
 number of electron     270.0000000 magnetization       9.0000000
 augmentation part      270.0000000 magnetization       9.0000000

 Free energy of the ion-electron system (eV)
  ---------------------------------------------------
  alpha Z        PSCENC =       798.38614055
  Ewald energy   TEWEN  =    -12901.57693327
  -Hartree energ DENC   =     -2855.60785864
  -exchange      EXHF   =         0.00000000
  -V(xc)+E(xc)   XCENC  =      -996.08226082
  PAW double counting   =     12741.82587617   -11476.22345381
  entropy T*S    EENTRO =         0.00460113
  eigenvalues    EBANDS =      1640.51425326
  atomic energy  EATOM  =     12697.67401269
  ---------------------------------------------------
  free energy    TOTEN  =      -351.08562275 eV

  energy without entropy =     -351.09022388  energy(sigma->0) =     -351.08715646


--------------------------------------------------------------------------------------------------------




--------------------------------------- Iteration      1(   4)  ---------------------------------------


    TRIAL :  cpu time   43.9864: real time   45.1429
    CORREC:  cpu time    0.0082: real time    0.0091
    --------------------------------------------
      LOOP:  cpu time   43.9954: real time   45.1554

 eigenvalue-minimisations  : 29472
 total energy-change (2. order) :-0.4697031E+02  (-0.4162777E+02)
 number of electron     270.0000000 magnetization       9.0000000
 augmentation part      270.0000000 magnetization       9.0000000

 Free energy of the ion-electron system (eV)
  ---------------------------------------------------
  alpha Z        PSCENC =       798.38614055
  Ewald energy   TEWEN  =    -12901.57693327
  -Hartree energ DENC   =     -2855.60785864
  -exchange      EXHF   =         0.00000000
  -V(xc)+E(xc)   XCENC  =      -996.08226082
  PAW double counting   =     12741.82587617   -11476.22345381
  entropy T*S    EENTRO =         0.02193037
  eigenvalues    EBANDS =      1593.52661557
  atomic energy  EATOM  =     12697.67401269
  ---------------------------------------------------
  free energy    TOTEN  =      -398.05593120 eV

  energy without entropy =     -398.07786157  energy(sigma->0) =     -398.06324133


--------------------------------------------------------------------------------------------------------




--------------------------------------- Iteration      1(   5)  ---------------------------------------


    TRIAL :  cpu time   45.1273: real time   46.1748
    CORREC:  cpu time    0.0084: real time    0.0092
    --------------------------------------------
      LOOP:  cpu time   45.1387: real time   46.1872

 eigenvalue-minimisations  : 30424
 total energy-change (2. order) :-0.5365289E+01  (-0.5130211E+01)
 number of electron     270.0000000 magnetization       9.0000000
 augmentation part      270.0000000 magnetization       9.0000000

 Free energy of the ion-electron system (eV)
  ---------------------------------------------------
  alpha Z        PSCENC =       798.38614055
  Ewald energy   TEWEN  =    -12901.57693327
  -Hartree energ DENC   =     -2855.60785864
  -exchange      EXHF   =         0.00000000
  -V(xc)+E(xc)   XCENC  =      -996.08226082
  PAW double counting   =     12741.82587617   -11476.22345381
  entropy T*S    EENTRO =         0.02100511
  eigenvalues    EBANDS =      1588.16225205
  atomic energy  EATOM  =     12697.67401269
  ---------------------------------------------------
  free energy    TOTEN  =      -403.42121998 eV

  energy without entropy =     -403.44222509  energy(sigma->0) =     -403.42822169


--------------------------------------------------------------------------------------------------------




--------------------------------------- Iteration      1(   6)  ---------------------------------------


    TRIAL :  cpu time   44.8513: real time   46.0881
    CORREC:  cpu time    0.0083: real time    0.0084
    --------------------------------------------
      LOOP:  cpu time   44.8626: real time   46.0995

 eigenvalue-minimisations  : 30168
 total energy-change (2. order) :-0.4206644E+00  (-0.4110365E+00)
 number of electron     270.0000000 magnetization       9.0000000
 augmentation part      270.0000000 magnetization       9.0000000

 Free energy of the ion-electron system (eV)
  ---------------------------------------------------
  alpha Z        PSCENC =       798.38614055
  Ewald energy   TEWEN  =    -12901.57693327
  -Hartree energ DENC   =     -2855.60785864
  -exchange      EXHF   =         0.00000000
  -V(xc)+E(xc)   XCENC  =      -996.08226082
  PAW double counting   =     12741.82587617   -11476.22345381
  entropy T*S    EENTRO =         0.02218835
  eigenvalues    EBANDS =      1587.74040437
  atomic energy  EATOM  =     12697.67401269
  ---------------------------------------------------
  free energy    TOTEN  =      -403.84188442 eV

  energy without entropy =     -403.86407277  energy(sigma->0) =     -403.84928053


--------------------------------------------------------------------------------------------------------




--------------------------------------- Iteration      1(   7)  ---------------------------------------


    TRIAL :  cpu time   45.6192: real time   45.9544
    CORREC:  cpu time    0.0084: real time    0.0093
    --------------------------------------------
      LOOP:  cpu time   45.6285: real time   45.9671

 eigenvalue-minimisations  : 30840
 total energy-change (2. order) :-0.4631196E-01  (-0.4575106E-01)
 number of electron     270.0000000 magnetization       9.0000000
 augmentation part      270.0000000 magnetization       9.0000000

 Free energy of the ion-electron system (eV)
  ---------------------------------------------------
  alpha Z        PSCENC =       798.38614055
  Ewald energy   TEWEN  =    -12901.57693327
  -Hartree energ DENC   =     -2855.60785864
  -exchange      EXHF   =         0.00000000
  -V(xc)+E(xc)   XCENC  =      -996.08226082
  PAW double counting   =     12741.82587617   -11476.22345381
  entropy T*S    EENTRO =         0.02260789
  eigenvalues    EBANDS =      1587.69367287
  atomic energy  EATOM  =     12697.67401269
  ---------------------------------------------------
  free energy    TOTEN  =      -403.88819638 eV

  energy without entropy =     -403.91080427  energy(sigma->0) =     -403.89573234


--------------------------------------------------------------------------------------------------------




--------------------------------------- Iteration      1(   8)  ---------------------------------------


    TRIAL :  cpu time   44.2424: real time   45.2858
    CORREC:  cpu time    0.0088: real time    0.0096
    CHARGE:  cpu time    1.5473: real time    1.5555
    --------------------------------------------
      LOOP:  cpu time   45.8017: real time   46.8547

 eigenvalue-minimisations  : 29568
 total energy-change (2. order) :-0.3988945E-02  (-0.3954916E-02)
 number of electron     269.9999995 magnetization       5.9386165
 augmentation part       64.2280355 magnetization       3.4723658

 Free energy of the ion-electron system (eV)
  ---------------------------------------------------
  alpha Z        PSCENC =       798.38614055
  Ewald energy   TEWEN  =    -12901.57693327
  -Hartree energ DENC   =     -2855.60785864
  -exchange      EXHF   =         0.00000000
  -V(xc)+E(xc)   XCENC  =      -996.08226082
  PAW double counting   =     12741.82587617   -11476.22345381
  entropy T*S    EENTRO =         0.02275424
  eigenvalues    EBANDS =      1587.68953757
  atomic energy  EATOM  =     12697.67401269
  ---------------------------------------------------
  free energy    TOTEN  =      -403.89218533 eV

  energy without entropy =     -403.91493957  energy(sigma->0) =     -403.89977007


--------------------------------------------------------------------------------------------------------




--------------------------------------- Iteration      1(   9)  ---------------------------------------


    POTLOK:  cpu time    0.4499: real time    0.4499
    SETDIJ:  cpu time    0.4544: real time    0.4544
    TRIAL :  cpu time   15.7990: real time   15.8327
    CORREC:  cpu time    5.1614: real time    5.8318
    CHARGE:  cpu time    1.5716: real time    1.5810
    --------------------------------------------
      LOOP:  cpu time   23.4506: real time   24.1651

 eigenvalue-minimisations  :     0
 total energy-change (2. order) : 0.2980988E+03  (-0.2196653E+03)
 number of electron     269.9999993 magnetization       6.5848754
 augmentation part       83.0167425 magnetization       4.4257545

 Free energy of the ion-electron system (eV)
  ---------------------------------------------------
  alpha Z        PSCENC =       798.38614055
  Ewald energy   TEWEN  =    -12901.57693327
  -Hartree energ DENC   =     -1272.65816183
  -exchange      EXHF   =         0.00000000
  -V(xc)+E(xc)   XCENC  =     -1041.74224594
  PAW double counting   =     19172.01642603   -17752.57621059
  entropy T*S    EENTRO =         0.00559659
  eigenvalues    EBANDS =       194.66087583
  atomic energy  EATOM  =     12697.67401269
  ---------------------------------------------------
  free energy    TOTEN  =      -105.79334228 eV

  energy without entropy =     -105.79893887  energy(sigma->0) =     -105.79520781


--------------------------------------------------------------------------------------------------------




--------------------------------------- Iteration      1(  10)  ---------------------------------------


    POTLOK:  cpu time    0.4391: real time    0.4391
    SETDIJ:  cpu time    0.4493: real time    0.4493
    TRIAL :  cpu time   15.0336: real time   15.2140
    CORREC:  cpu time    4.9059: real time    4.9588
    CHARGE:  cpu time    1.5459: real time    1.5458
    --------------------------------------------
      LOOP:  cpu time   22.3980: real time   22.6326

 eigenvalue-minimisations  :     0
 total energy-change (2. order) :-0.2137914E+03  (-0.1131096E+02)
 number of electron     269.9999993 magnetization       6.7786396
 augmentation part       86.6766166 magnetization       4.5518745

 Free energy of the ion-electron system (eV)
  ---------------------------------------------------
  alpha Z        PSCENC =       798.38614055
  Ewald energy   TEWEN  =    -12901.57693327
  -Hartree energ DENC   =     -2133.58727772
  -exchange      EXHF   =         0.00000000
  -V(xc)+E(xc)   XCENC  =     -1011.65173300
  PAW double counting   =     20762.92782796   -19530.06653797
  entropy T*S    EENTRO =         0.00401058
  eigenvalues    EBANDS =       998.30413166
  atomic energy  EATOM  =     12697.67401269
  ---------------------------------------------------
  free energy    TOTEN  =      -319.58477251 eV

  energy without entropy =     -319.58878309  energy(sigma->0) =     -319.58610937


--------------------------------------------------------------------------------------------------------




--------------------------------------- Iteration      1(  11)  ---------------------------------------


    POTLOK:  cpu time    0.3918: real time    0.3920
    SETDIJ:  cpu time    0.4597: real time    0.4597
    TRIAL :  cpu time   15.2101: real time   15.2638
    CORREC:  cpu time    4.9468: real time    4.9485
    CHARGE:  cpu time    1.5752: real time    1.5753
    --------------------------------------------
      LOOP:  cpu time   22.6080: real time   22.6656

 eigenvalue-minimisations  :     0
 total energy-change (2. order) :-0.1064109E+02  (-0.1117502E+02)
 number of electron     269.9999993 magnetization       7.0111786
 augmentation part       89.1609358 magnetization       4.8400278

 Free energy of the ion-electron system (eV)
  ---------------------------------------------------
  alpha Z        PSCENC =       798.38614055
  Ewald energy   TEWEN  =    -12901.57693327
  -Hartree energ DENC   =     -2357.05335453
  -exchange      EXHF   =         0.00000000
  -V(xc)+E(xc)   XCENC  =     -1003.43605017
  PAW double counting   =     21592.13655336   -20394.44488774
  entropy T*S    EENTRO =         0.01005308
  eigenvalues    EBANDS =      1238.08464274
  atomic energy  EATOM  =     12697.67401269
  ---------------------------------------------------
  free energy    TOTEN  =      -330.22586581 eV

  energy without entropy =     -330.23591889  energy(sigma->0) =     -330.22921683


--------------------------------------------------------------------------------------------------------




--------------------------------------- Iteration      1(  12)  ---------------------------------------


    POTLOK:  cpu time    0.3911: real time    0.3912
    SETDIJ:  cpu time    0.4418: real time    0.4621
    TRIAL :  cpu time   15.1314: real time   15.8838
    CORREC:  cpu time    4.8739: real time    5.0118
    CHARGE:  cpu time    1.5605: real time    1.5605
    --------------------------------------------
      LOOP:  cpu time   22.4005: real time   23.3127

 eigenvalue-minimisations  :     0
 total energy-change (2. order) :-0.1125389E+02  (-0.1136510E+02)
 number of electron     269.9999993 magnetization       7.1501142
 augmentation part       86.7449078 magnetization       4.9674695

 Free energy of the ion-electron system (eV)
  ---------------------------------------------------
  alpha Z        PSCENC =       798.38614055
  Ewald energy   TEWEN  =    -12901.57693327
  -Hartree energ DENC   =     -2561.83685740
  -exchange      EXHF   =         0.00000000
  -V(xc)+E(xc)   XCENC  =      -996.48095793
  PAW double counting   =     21853.09007477   -20666.62454824
  entropy T*S    EENTRO =        -0.00711825
  eigenvalues    EBANDS =      1435.87925843
  atomic energy  EATOM  =     12697.67401269
  ---------------------------------------------------
  free energy    TOTEN  =      -341.47975732 eV

  energy without entropy =     -341.47263907  energy(sigma->0) =     -341.47738457


--------------------------------------------------------------------------------------------------------




--------------------------------------- Iteration      1(  13)  ---------------------------------------


    POTLOK:  cpu time    0.3917: real time    0.3917
    SETDIJ:  cpu time    0.4705: real time    0.4705
    TRIAL :  cpu time   15.2328: real time   15.3924
    CORREC:  cpu time    4.9285: real time    4.9407
    CHARGE:  cpu time    1.5928: real time    1.5988
    --------------------------------------------
      LOOP:  cpu time   22.6181: real time   23.0341

 eigenvalue-minimisations  :     0
 total energy-change (2. order) :-0.1127089E+02  (-0.7915048E+00)
 number of electron     269.9999993 magnetization       7.3369188
 augmentation part       86.3073388 magnetization       4.9834756

 Free energy of the ion-electron system (eV)
  ---------------------------------------------------
  alpha Z        PSCENC =       798.38614055
  Ewald energy   TEWEN  =    -12901.57693327
  -Hartree energ DENC   =     -2518.48720188
  -exchange      EXHF   =         0.00000000
  -V(xc)+E(xc)   XCENC  =      -998.94076261
  PAW double counting   =     21235.97921013   -19997.12739275
  entropy T*S    EENTRO =        -0.01109615
  eigenvalues    EBANDS =      1331.34939782
  atomic energy  EATOM  =     12697.67401269
  ---------------------------------------------------
  free energy    TOTEN  =      -352.75064756 eV

  energy without entropy =     -352.73955142  energy(sigma->0) =     -352.74694885


--------------------------------------------------------------------------------------------------------




--------------------------------------- Iteration      1(  14)  ---------------------------------------


    POTLOK:  cpu time    0.3913: real time    0.3913
    SETDIJ:  cpu time    0.4700: real time    0.4700
    TRIAL :  cpu time   15.1275: real time   15.1819
    CORREC:  cpu time    5.7805: real time    5.7814
    CHARGE:  cpu time    1.4991: real time    2.2733
    --------------------------------------------
      LOOP:  cpu time   23.2712: real time   24.1018

 eigenvalue-minimisations  :     0
 total energy-change (2. order) :-0.7889886E+00  (-0.1248361E+01)
 number of electron     269.9999993 magnetization       7.4740827
 augmentation part       86.0047478 magnetization       4.9894969

 Free energy of the ion-electron system (eV)
  ---------------------------------------------------
  alpha Z        PSCENC =       798.38614055
  Ewald energy   TEWEN  =    -12901.57693327
  -Hartree energ DENC   =     -2495.16959098
  -exchange      EXHF   =         0.00000000
  -V(xc)+E(xc)   XCENC  =      -999.81508641
  PAW double counting   =     20965.16400275   -19718.83993040
  entropy T*S    EENTRO =        -0.01031251
  eigenvalues    EBANDS =      1300.64884505
  atomic energy  EATOM  =     12697.67401269
  ---------------------------------------------------
  free energy    TOTEN  =      -353.53963616 eV

  energy without entropy =     -353.52932365  energy(sigma->0) =     -353.53619866


--------------------------------------------------------------------------------------------------------




--------------------------------------- Iteration      1(  15)  ---------------------------------------


    POTLOK:  cpu time    0.3913: real time    0.3914
    SETDIJ:  cpu time    0.5038: real time    0.5041
    TRIAL :  cpu time   15.2062: real time   15.4449
    CORREC:  cpu time    4.9153: real time    4.9272
    CHARGE:  cpu time    1.5675: real time    1.6126
    --------------------------------------------
      LOOP:  cpu time   22.5854: real time   22.8830

 eigenvalue-minimisations  :     0
 total energy-change (2. order) :-0.1246744E+01  (-0.6551504E+00)
 number of electron     269.9999992 magnetization       7.3459168
 augmentation part       86.5506589 magnetization       5.0036104

 Free energy of the ion-electron system (eV)
  ---------------------------------------------------
  alpha Z        PSCENC =       798.38614055
  Ewald energy   TEWEN  =    -12901.57693327
  -Hartree energ DENC   =     -2464.80562882
  -exchange      EXHF   =         0.00000000
  -V(xc)+E(xc)   XCENC  =     -1000.90079346
  PAW double counting   =     20137.11002243   -18881.76737784
  entropy T*S    EENTRO =        -0.01235365
  eigenvalues    EBANDS =      1261.10448991
  atomic energy  EATOM  =     12697.67401269
  ---------------------------------------------------
  free energy    TOTEN  =      -354.78638031 eV

  energy without entropy =     -354.77402666  energy(sigma->0) =     -354.78226243


--------------------------------------------------------------------------------------------------------




--------------------------------------- Iteration      1(  16)  ---------------------------------------


    POTLOK:  cpu time    0.3912: real time    0.3913
    SETDIJ:  cpu time    0.4767: real time    0.4767
    TRIAL :  cpu time   15.2472: real time   15.3371
    CORREC:  cpu time    4.9070: real time    4.9310
    CHARGE:  cpu time    1.5641: real time    1.5641
    --------------------------------------------
      LOOP:  cpu time   22.5946: real time   22.7087

 eigenvalue-minimisations  :     0
 total energy-change (2. order) :-0.6506857E+00  (-0.2708095E+00)
 number of electron     269.9999992 magnetization       7.4852592
 augmentation part       87.1604937 magnetization       5.0800373

 Free energy of the ion-electron system (eV)
  ---------------------------------------------------
  alpha Z        PSCENC =       798.38614055
  Ewald energy   TEWEN  =    -12901.57693327
  -Hartree energ DENC   =     -2482.72545454
  -exchange      EXHF   =         0.00000000
  -V(xc)+E(xc)   XCENC  =     -1000.17132015
  PAW double counting   =     19752.66138663   -18500.57105698
  entropy T*S    EENTRO =        -0.01246353
  eigenvalues    EBANDS =      1280.89851267
  atomic energy  EATOM  =     12697.67401269
  ---------------------------------------------------
  free energy    TOTEN  =      -355.43706604 eV

  energy without entropy =     -355.42460251  energy(sigma->0) =     -355.43291153


--------------------------------------------------------------------------------------------------------




--------------------------------------- Iteration      1(  17)  ---------------------------------------


    POTLOK:  cpu time    0.3908: real time    0.3908
    SETDIJ:  cpu time    0.4860: real time    0.4859
    TRIAL :  cpu time   15.2917: real time   15.9703
    CORREC:  cpu time    5.0092: real time    5.0180
    CHARGE:  cpu time    1.5029: real time    1.5784
    --------------------------------------------
      LOOP:  cpu time   22.6852: real time   23.4501

 eigenvalue-minimisations  :     0
 total energy-change (2. order) :-0.2714743E+00  (-0.2075962E+00)
 number of electron     269.9999992 magnetization       7.5325596
 augmentation part       87.3105605 magnetization       5.1385538

 Free energy of the ion-electron system (eV)
  ---------------------------------------------------
  alpha Z        PSCENC =       798.38614055
  Ewald energy   TEWEN  =    -12901.57693327
  -Hartree energ DENC   =     -2509.98765737
  -exchange      EXHF   =         0.00000000
  -V(xc)+E(xc)   XCENC  =      -999.03636660
  PAW double counting   =     19633.63189244   -18387.49131670
  entropy T*S    EENTRO =        -0.01249346
  eigenvalues    EBANDS =      1312.70415149
  atomic energy  EATOM  =     12697.67401269
  ---------------------------------------------------
  free energy    TOTEN  =      -355.70854030 eV

  energy without entropy =     -355.69604684  energy(sigma->0) =     -355.70437581


--------------------------------------------------------------------------------------------------------




--------------------------------------- Iteration      1(  18)  ---------------------------------------


    POTLOK:  cpu time    0.3919: real time    0.3919
    SETDIJ:  cpu time    0.4593: real time    0.4593
    TRIAL :  cpu time   15.1407: real time   15.3229
    CORREC:  cpu time    4.9508: real time    5.0148
    CHARGE:  cpu time    1.5557: real time    1.5558
    --------------------------------------------
      LOOP:  cpu time   22.5015: real time   22.7494

 eigenvalue-minimisations  :     0
 total energy-change (2. order) :-0.2076246E+00  (-0.1782203E+00)
 number of electron     269.9999992 magnetization       7.5537492
 augmentation part       87.1214125 magnetization       5.1954007

 Free energy of the ion-electron system (eV)
  ---------------------------------------------------
  alpha Z        PSCENC =       798.38614055
  Ewald energy   TEWEN  =    -12901.57693327
  -Hartree energ DENC   =     -2515.30184586
  -exchange      EXHF   =         0.00000000
  -V(xc)+E(xc)   XCENC  =      -998.60483292
  PAW double counting   =     19555.99951957   -18311.28163754
  entropy T*S    EENTRO =        -0.01377491
  eigenvalues    EBANDS =      1318.80190536
  atomic energy  EATOM  =     12697.67401269
  ---------------------------------------------------
  free energy    TOTEN  =      -355.91616488 eV

  energy without entropy =     -355.90238997  energy(sigma->0) =     -355.91157324


--------------------------------------------------------------------------------------------------------




--------------------------------------- Iteration      1(  19)  ---------------------------------------


    POTLOK:  cpu time    0.3920: real time    0.3921
    SETDIJ:  cpu time    0.4587: real time    0.4587
    TRIAL :  cpu time   15.2005: real time   15.2702
    CORREC:  cpu time    4.8793: real time    4.9025
    CHARGE:  cpu time    1.6037: real time    1.6038
    --------------------------------------------
      LOOP:  cpu time   22.5429: real time   22.6394

 eigenvalue-minimisations  :     0
 total energy-change (2. order) :-0.1770189E+00  (-0.5580505E-01)
 number of electron     269.9999992 magnetization       7.5908379
 augmentation part       86.9530002 magnetization       5.2247189

 Free energy of the ion-electron system (eV)
  ---------------------------------------------------
  alpha Z        PSCENC =       798.38614055
  Ewald energy   TEWEN  =    -12901.57693327
  -Hartree energ DENC   =     -2503.90198828
  -exchange      EXHF   =         0.00000000
  -V(xc)+E(xc)   XCENC  =      -998.75831163
  PAW double counting   =     19493.22103938   -18246.43108817
  entropy T*S    EENTRO =        -0.01405538
  eigenvalues    EBANDS =      1305.30771982
  atomic energy  EATOM  =     12697.67401269
  ---------------------------------------------------
  free energy    TOTEN  =      -356.09318382 eV

  energy without entropy =     -356.07912843  energy(sigma->0) =     -356.08849869


--------------------------------------------------------------------------------------------------------




--------------------------------------- Iteration      1(  20)  ---------------------------------------


    POTLOK:  cpu time    0.3917: real time    0.3917
    SETDIJ:  cpu time    0.7851: real time    0.7851
    TRIAL :  cpu time   15.1772: real time   16.0234
    CORREC:  cpu time    4.9355: real time    5.0221
    CHARGE:  cpu time    1.5583: real time    1.5674
    --------------------------------------------
      LOOP:  cpu time   22.8537: real time   23.7956

 eigenvalue-minimisations  :     0
 total energy-change (2. order) :-0.5564839E-01  (-0.8936221E-01)
 number of electron     269.9999992 magnetization       7.6184684
 augmentation part       86.7823501 magnetization       5.2619605

 Free energy of the ion-electron system (eV)
  ---------------------------------------------------
  alpha Z        PSCENC =       798.38614055
  Ewald energy   TEWEN  =    -12901.57693327
  -Hartree energ DENC   =     -2495.68762486
  -exchange      EXHF   =         0.00000000
  -V(xc)+E(xc)   XCENC  =      -998.96352070
  PAW double counting   =     19474.61605538   -18226.11143806
  entropy T*S    EENTRO =        -0.01519368
  eigenvalues    EBANDS =      1295.52853145
  atomic energy  EATOM  =     12697.67401269
  ---------------------------------------------------
  free energy    TOTEN  =      -356.14883221 eV

  energy without entropy =     -356.13363853  energy(sigma->0) =     -356.14376765


--------------------------------------------------------------------------------------------------------




--------------------------------------- Iteration      1(  21)  ---------------------------------------


    POTLOK:  cpu time    0.3908: real time    0.3908
    SETDIJ:  cpu time    0.4611: real time    0.4612
    TRIAL :  cpu time   15.2251: real time   15.3296
    CORREC:  cpu time    4.9684: real time    4.9869
    CHARGE:  cpu time    1.5664: real time    1.5665
    --------------------------------------------
      LOOP:  cpu time   22.6179: real time   22.7422

 eigenvalue-minimisations  :     0
 total energy-change (2. order) :-0.8934637E-01  (-0.4433356E-01)
 number of electron     269.9999992 magnetization       7.6946078
 augmentation part       86.8521025 magnetization       5.3091533

 Free energy of the ion-electron system (eV)
  ---------------------------------------------------
  alpha Z        PSCENC =       798.38614055
  Ewald energy   TEWEN  =    -12901.57693327
  -Hartree energ DENC   =     -2490.59919884
  -exchange      EXHF   =         0.00000000
  -V(xc)+E(xc)   XCENC  =      -999.00057855
  PAW double counting   =     19471.40085790   -18221.65776271
  entropy T*S    EENTRO =        -0.01600513
  eigenvalues    EBANDS =      1289.15047734
  atomic energy  EATOM  =     12697.67401269
  ---------------------------------------------------
  free energy    TOTEN  =      -356.23817857 eV

  energy without entropy =     -356.22217344  energy(sigma->0) =     -356.23284353


--------------------------------------------------------------------------------------------------------




--------------------------------------- Iteration      1(  22)  ---------------------------------------


    POTLOK:  cpu time    0.3902: real time    0.3902
    SETDIJ:  cpu time    0.4659: real time    0.4659
    TRIAL :  cpu time   15.9049: real time   15.9355
    CORREC:  cpu time    4.9717: real time    5.7883
    CHARGE:  cpu time    1.5567: real time    1.5643
    --------------------------------------------
      LOOP:  cpu time   23.2960: real time   24.1529

 eigenvalue-minimisations  :     0
 total energy-change (2. order) :-0.4435281E-01  (-0.2052524E-01)
 number of electron     269.9999992 magnetization       7.7177824
 augmentation part       86.9720347 magnetization       5.3338857

 Free energy of the ion-electron system (eV)
  ---------------------------------------------------
  alpha Z        PSCENC =       798.38614055
  Ewald energy   TEWEN  =    -12901.57693327
  -Hartree energ DENC   =     -2496.43029474
  -exchange      EXHF   =         0.00000000
  -V(xc)+E(xc)   XCENC  =      -998.71134756
  PAW double counting   =     19488.11279092   -18239.52925260
  entropy T*S    EENTRO =        -0.01636836
  eigenvalues    EBANDS =      1295.80835776
  atomic energy  EATOM  =     12697.67401269
  ---------------------------------------------------
  free energy    TOTEN  =      -356.28253138 eV

  energy without entropy =     -356.26616302  energy(sigma->0) =     -356.27707526


--------------------------------------------------------------------------------------------------------




--------------------------------------- Iteration      1(  23)  ---------------------------------------


    POTLOK:  cpu time    0.3917: real time    0.3917
    SETDIJ:  cpu time    0.4897: real time    0.4897
    TRIAL :  cpu time   15.1320: real time   15.3245
    CORREC:  cpu time    4.9346: real time    4.9814
    CHARGE:  cpu time    1.5690: real time    1.5692
    --------------------------------------------
      LOOP:  cpu time   22.5230: real time   22.7637

 eigenvalue-minimisations  :     0
 total energy-change (2. order) :-0.2054735E-01  (-0.1116439E-01)
 number of electron     269.9999992 magnetization       7.7282238
 augmentation part       86.9999996 magnetization       5.3479475

 Free energy of the ion-electron system (eV)
  ---------------------------------------------------
  alpha Z        PSCENC =       798.38614055
  Ewald energy   TEWEN  =    -12901.57693327
  -Hartree energ DENC   =     -2503.63035096
  -exchange      EXHF   =         0.00000000
  -V(xc)+E(xc)   XCENC  =      -998.41232114
  PAW double counting   =     19502.12549712   -18255.01946466
  entropy T*S    EENTRO =        -0.01655364
  eigenvalues    EBANDS =      1304.16670930
  atomic energy  EATOM  =     12697.67401269
  ---------------------------------------------------
  free energy    TOTEN  =      -356.30307873 eV

  energy without entropy =     -356.28652509  energy(sigma->0) =     -356.29756085


--------------------------------------------------------------------------------------------------------




--------------------------------------- Iteration      1(  24)  ---------------------------------------


    POTLOK:  cpu time    0.3965: real time    0.4022
    SETDIJ:  cpu time    0.4842: real time    0.4847
    TRIAL :  cpu time   15.1817: real time   15.2481
[...]
   45       -0.014  -0.017  -2.264  -2.295
   46        0.018   0.020   2.380   2.418
   47        0.017   0.015   2.388   2.419
   48       -0.015  -0.017  -2.288  -2.319
   49        0.018   0.020   2.380   2.418
   50        0.017   0.015   2.388   2.419
   51       -0.015  -0.017  -2.288  -2.319
   52        0.018   0.020   2.380   2.418
   53        0.017   0.015   2.388   2.419
   54       -0.015  -0.017  -2.288  -2.319
--------------------------------------------------
tot         -0.009  -0.026   7.862   7.827
 
    FORLOC:  cpu time    0.0583: real time    0.0583
    FORNL :  cpu time   23.2186: real time   23.5300
    STRESS:  cpu time   33.4468: real time   34.5650
    FORCOR:  cpu time    0.4376: real time    0.4376
    OFIELD:  cpu time    0.0022: real time    0.0022

  FORCE on cell =-STRESS in cart. coord.  units (eV):
  Direction    XX          YY          ZZ          XY          YZ          ZX
  --------------------------------------------------------------------------------------
  Alpha Z   798.38614   798.38614   798.38614
  Ewald   -4053.61603 -4053.61603 -4794.40593    -0.00000    -0.00000    -0.00000
  Hartree  1083.45642  1085.96210   332.27562    -0.00000    -0.00000    -0.00000
  E(xc)   -1141.23048 -1141.83341 -1139.52827    -0.00000    -0.00000     0.00000
  Local     371.24150   364.94226  1906.51849     0.00000    -0.00000     0.00000
  n-local  -170.19821  -171.97829  -176.13344     0.43277    -0.26042    -0.29129
  augment   783.56589   786.01871   766.96913     0.00000     0.00001     0.00001
  Kinetic  2333.82998  2338.37094  2308.28054    -2.47473    -1.49671    -1.03003
  Fock        0.00000     0.00000     0.00000     0.00000     0.00000     0.00000
  -------------------------------------------------------------------------------------
  Total       5.43521     6.25241     2.36228     0.00000     0.00000     0.00000
  in kB      12.26656    14.11088     5.33135     0.00000     0.00000     0.00000
  external pressure =       10.57 kB  Pullay stress =        0.00 kB


 VOLUME and BASIS-vectors are now :
 -----------------------------------------------------------------------------
  energy-cutoff  :      404.80
  volume of cell :      709.91
      direct lattice vectors                 reciprocal lattice vectors
     8.250148166  0.000000000  0.000000000     0.121209944  0.000000000  0.000000000
     0.000000000  8.250148166  0.000000000     0.000000000  0.121209944  0.000000000
     0.000000000  0.000000000 10.429911392     0.000000000  0.000000000  0.095878092

  length of vectors
     8.250148166  8.250148166 10.429911392     0.121209944  0.121209944  0.095878092


 FORCES acting on ions:
    Electron-Ion                     Ewald-Force                    Non-Local-Force
 -----------------------------------------------------------------------------------------------
   0.103E-01 -.255E-10 0.168E-01   -.239E-08 -.239E-08 -.210E-08   0.235E-02 0.542E-19 -.123E-01
   0.814E-01 -.254E-10 -.561E-01   -.239E-08 -.239E-08 0.171E-08   -.570E-01 -.136E-18 -.484E-02
   -.472E-01 -.255E-10 0.743E-01   -.239E-08 -.239E-08 0.861E-08   0.135E+00 0.434E-18 -.709E-02
   0.103E-01 -.625E-09 0.168E-01   -.239E-08 -.802E-09 -.210E-08   0.235E-02 0.271E-19 -.123E-01
   0.814E-01 -.620E-09 -.561E-01   -.239E-08 -.802E-09 0.171E-08   -.570E-01 -.136E-18 -.484E-02
   -.472E-01 -.617E-09 0.743E-01   -.239E-08 -.802E-09 0.861E-08   0.135E+00 0.217E-18 -.709E-02
   0.103E-01 -.379E-08 0.168E-01   -.239E-08 0.631E-08 -.210E-08   0.235E-02 -.813E-19 -.123E-01
   0.814E-01 -.378E-08 -.561E-01   -.239E-08 0.631E-08 0.171E-08   -.570E-01 0.000E+00 -.484E-02
   -.472E-01 -.378E-08 0.743E-01   -.239E-08 0.631E-08 0.861E-08   0.135E+00 0.217E-18 -.709E-02
   -.103E-01 -.255E-10 0.168E-01   -.802E-09 -.239E-08 -.210E-08   -.235E-02 0.163E-18 -.123E-01
   -.814E-01 -.254E-10 -.561E-01   -.802E-09 -.239E-08 0.171E-08   0.570E-01 0.108E-18 -.484E-02
   0.472E-01 -.255E-10 0.743E-01   -.803E-09 -.239E-08 0.861E-08   -.135E+00 -.413E-18 -.709E-02
   -.103E-01 -.625E-09 0.168E-01   -.802E-09 -.802E-09 -.210E-08   -.235E-02 0.000E+00 -.123E-01
   -.814E-01 -.620E-09 -.561E-01   -.802E-09 -.802E-09 0.171E-08   0.570E-01 0.000E+00 -.484E-02
   0.472E-01 -.617E-09 0.743E-01   -.803E-09 -.802E-09 0.861E-08   -.135E+00 -.230E-18 -.709E-02
   -.103E-01 -.379E-08 0.168E-01   -.802E-09 0.631E-08 -.210E-08   -.235E-02 -.542E-19 -.123E-01
   -.814E-01 -.378E-08 -.561E-01   -.802E-09 0.631E-08 0.171E-08   0.570E-01 0.108E-18 -.484E-02
   0.472E-01 -.378E-08 0.743E-01   -.803E-09 0.631E-08 0.861E-08   -.135E+00 -.210E-18 -.709E-02
   -.329E-08 -.255E-10 -.146E+00   0.631E-08 -.239E-08 -.210E-08   -.542E-19 0.542E-18 0.742E-01
   -.327E-08 -.254E-10 -.204E-01   0.631E-08 -.239E-08 0.171E-08   0.847E-21 -.542E-19 0.726E-01
   -.328E-08 -.255E-10 0.446E-01   0.631E-08 -.239E-08 0.861E-08   -.136E-19 0.108E-18 -.421E-01
   -.329E-08 -.629E-09 -.146E+00   0.631E-08 -.802E-09 -.210E-08   -.217E-18 -.217E-18 0.742E-01
   -.327E-08 -.624E-09 -.204E-01   0.631E-08 -.802E-09 0.171E-08   0.339E-20 0.813E-19 0.726E-01
   -.328E-08 -.634E-09 0.446E-01   0.631E-08 -.802E-09 0.861E-08   -.339E-19 0.108E-18 -.421E-01
   -.329E-08 -.380E-08 -.146E+00   0.631E-08 0.631E-08 -.210E-08   -.163E-18 0.325E-18 0.742E-01
   -.327E-08 -.379E-08 -.204E-01   0.631E-08 0.631E-08 0.171E-08   0.254E-20 0.271E-19 0.726E-01
   -.328E-08 -.381E-08 0.446E-01   0.631E-08 0.631E-08 0.861E-08   -.678E-20 0.108E-18 -.421E-01
   0.484E-08 0.524E-08 -.117E+00   -.169E-07 -.169E-07 -.180E-07   0.434E-18 0.217E-18 0.112E+00
   0.476E-08 0.525E-08 0.190E+00   -.169E-07 -.169E-07 -.170E-08   0.130E-17 -.325E-18 -.210E+00
   0.484E-08 0.521E-08 -.119E+00   -.169E-07 -.169E-07 0.115E-07   0.542E-19 0.000E+00 0.223E+00
   0.484E-08 0.820E-11 -.117E+00   -.169E-07 0.802E-09 -.180E-07   0.434E-18 0.000E+00 0.112E+00
   0.476E-08 0.827E-11 0.190E+00   -.169E-07 0.802E-09 -.170E-08   0.867E-18 -.325E-18 -.210E+00
   0.484E-08 0.835E-11 -.119E+00   -.169E-07 0.802E-09 0.115E-07   0.108E-18 0.217E-18 0.223E+00
   0.484E-08 -.528E-08 -.117E+00   -.169E-07 0.130E-07 -.180E-07   0.867E-18 0.217E-18 0.112E+00
   0.476E-08 -.529E-08 0.190E+00   -.169E-07 0.130E-07 -.170E-08   0.217E-17 0.651E-18 -.210E+00
   0.484E-08 -.525E-08 -.119E+00   -.169E-07 0.130E-07 0.115E-07   0.271E-18 -.217E-18 0.223E+00
   -.771E-01 0.522E-08 0.472E-01   0.802E-09 -.169E-07 -.180E-07   0.930E-01 0.000E+00 -.143E+00
   0.251E+00 0.525E-08 -.808E-01   0.802E-09 -.169E-07 -.170E-08   -.403E-01 -.434E-18 0.127E+00
   0.195E-01 0.524E-08 0.716E-01   0.802E-09 -.169E-07 0.115E-07   -.894E-02 0.325E-18 -.621E-01
   -.771E-01 0.800E-11 0.472E-01   0.802E-09 0.802E-09 -.180E-07   0.930E-01 -.542E-19 -.143E+00
   0.251E+00 0.945E-11 -.808E-01   0.802E-09 0.802E-09 -.170E-08   -.403E-01 -.434E-18 0.127E+00
   0.195E-01 0.982E-11 0.716E-01   0.802E-09 0.802E-09 0.115E-07   -.894E-02 -.976E-18 -.621E-01
   -.771E-01 -.526E-08 0.472E-01   0.802E-09 0.130E-07 -.180E-07   0.930E-01 -.542E-19 -.143E+00
   0.251E+00 -.529E-08 -.808E-01   0.802E-09 0.130E-07 -.170E-08   -.403E-01 0.867E-18 0.127E+00
   0.195E-01 -.528E-08 0.716E-01   0.802E-09 0.130E-07 0.115E-07   -.894E-02 -.434E-18 -.621E-01
   0.771E-01 0.521E-08 0.472E-01   0.130E-07 -.169E-07 -.180E-07   -.930E-01 0.000E+00 -.143E+00
   -.251E+00 0.525E-08 -.808E-01   0.130E-07 -.169E-07 -.170E-08   0.403E-01 0.130E-17 0.127E+00
   -.195E-01 0.523E-08 0.716E-01   0.130E-07 -.169E-07 0.115E-07   0.894E-02 0.434E-18 -.621E-01
   0.771E-01 0.940E-11 0.472E-01   0.130E-07 0.802E-09 -.180E-07   -.930E-01 0.000E+00 -.143E+00
   -.251E+00 0.615E-11 -.808E-01   0.130E-07 0.802E-09 -.170E-08   0.403E-01 0.434E-18 0.127E+00
   -.195E-01 0.777E-11 0.716E-01   0.130E-07 0.802E-09 0.115E-07   0.894E-02 -.867E-18 -.621E-01
   0.771E-01 -.526E-08 0.472E-01   0.130E-07 0.130E-07 -.180E-07   -.930E-01 0.000E+00 -.143E+00
   -.251E+00 -.529E-08 -.808E-01   0.130E-07 0.130E-07 -.170E-08   0.403E-01 -.173E-17 0.127E+00
   -.195E-01 -.528E-08 0.716E-01   0.130E-07 0.130E-07 0.115E-07   0.894E-02 0.434E-18 -.621E-01
 -----------------------------------------------------------------------------------------------
   -.406E-07 -.449E-07 -.814E-01   -.614E-13 -.142E-13 0.128E-13   -.173E-16 0.339E-18 0.813E-01
 
 
 POSITION                                       TOTAL-FORCE (eV/Angst)
 -----------------------------------------------------------------------------------
      0.00000      0.00000      0.00000         0.012571      0.000000      0.005845
      0.00000      0.00000      3.47664         0.029661      0.000000     -0.059350
      0.00000      0.00000      6.95327         0.076764      0.000000      0.066730
      0.00000      2.75005      0.00000         0.012571      0.000000      0.005845
      0.00000      2.75005      3.47664         0.029661      0.000000     -0.059350
      0.00000      2.75005      6.95327         0.076764      0.000000      0.066730
      0.00000      5.50010      0.00000         0.012571      0.000000      0.005845
      0.00000      5.50010      3.47664         0.029661      0.000000     -0.059350
      0.00000      5.50010      6.95327         0.076764      0.000000      0.066730
      2.75005      0.00000      0.00000        -0.012571      0.000000      0.005845
      2.75005      0.00000      3.47664        -0.029661      0.000000     -0.059350
      2.75005      0.00000      6.95327        -0.076764     -0.000000      0.066730
      2.75005      2.75005      0.00000        -0.012571      0.000000      0.005845
      2.75005      2.75005      3.47664        -0.029661      0.000000     -0.059350
      2.75005      2.75005      6.95327        -0.076764     -0.000000      0.066730
      2.75005      5.50010      0.00000        -0.012571      0.000000      0.005845
      2.75005      5.50010      3.47664        -0.029661     -0.000000     -0.059350
      2.75005      5.50010      6.95327        -0.076764      0.000000      0.066730
      5.50010      0.00000      0.00000        -0.000000     -0.000000     -0.078574
      5.50010      0.00000      3.47664        -0.000000      0.000000      0.046562
      5.50010      0.00000      6.95327        -0.000000      0.000000      0.005400
      5.50010      2.75005      0.00000        -0.000000     -0.000000     -0.078574
      5.50010      2.75005      3.47664        -0.000000      0.000000      0.046562
      5.50010      2.75005      6.95327        -0.000000      0.000000      0.005400
      5.50010      5.50010      0.00000        -0.000000      0.000000     -0.078574
      5.50010      5.50010      3.47664        -0.000000      0.000000      0.046562
      5.50010      5.50010      6.95327        -0.000000      0.000000      0.005400
      1.37502      1.37502      1.73832        -0.000000      0.000000     -0.006526
      1.37502      1.37502      5.21496        -0.000000      0.000000     -0.013980
      1.37502      1.37502      8.69159        -0.000000      0.000000      0.098130
      1.37502      4.12507      1.73832        -0.000000      0.000000     -0.006526
      1.37502      4.12507      5.21496        -0.000000      0.000000     -0.013980
      1.37502      4.12507      8.69159        -0.000000      0.000000      0.098130
      1.37502      6.87512      1.73832        -0.000000      0.000000     -0.006526
      1.37502      6.87512      5.21496        -0.000000      0.000000     -0.013980
      1.37502      6.87512      8.69159        -0.000000     -0.000000      0.098130
      4.12507      1.37502      1.73832         0.018021      0.000000     -0.086756
      4.12507      1.37502      5.21496         0.214380      0.000000      0.039285
      4.12507      1.37502      8.69159         0.009775      0.000000      0.008740
      4.12507      4.12507      1.73832         0.018021      0.000000     -0.086756
      4.12507      4.12507      5.21496         0.214380     -0.000000      0.039285
      4.12507      4.12507      8.69159         0.009775      0.000000      0.008740
      4.12507      6.87512      1.73832         0.018021     -0.000000     -0.086756
      4.12507      6.87512      5.21496         0.214380      0.000000      0.039285
      4.12507      6.87512      8.69159         0.009775     -0.000000      0.008740
      6.87512      1.37502      1.73832        -0.018021      0.000000     -0.086756
      6.87512      1.37502      5.21496        -0.214380      0.000000      0.039285
      6.87512      1.37502      8.69159        -0.009775      0.000000      0.008740
      6.87512      4.12507      1.73832        -0.018021      0.000000     -0.086756
      6.87512      4.12507      5.21496        -0.214380      0.000000      0.039285
      6.87512      4.12507      8.69159        -0.009775      0.000000      0.008740
      6.87512      6.87512      1.73832        -0.018021     -0.000000     -0.086756
      6.87512      6.87512      5.21496        -0.214380     -0.000000      0.039285
      6.87512      6.87512      8.69159        -0.009775      0.000000      0.008740
 -----------------------------------------------------------------------------------
    total drift:                               -0.000000     -0.000000     -0.000031


--------------------------------------------------------------------------------------------------------



  FREE ENERGIE OF THE ION-ELECTRON SYSTEM (eV)
  ---------------------------------------------------
  free  energy   TOTEN  =      -356.38063741 eV

  energy  without entropy=     -356.36450749  energy(sigma->0) =     -356.37526077
 


--------------------------------------------------------------------------------------------------------


    POTLOK:  cpu time    0.8634: real time    0.8635


--------------------------------------------------------------------------------------------------------


     LOOP+:  cpu time 1703.5192: real time 1740.7797
    4ORBIT:  cpu time    0.0000: real time    0.0000
 


 total charge     
 
# of ion       s       p       d       tot
------------------------------------------
    1        0.405   0.426   0.000   0.832
    2        0.405   0.429   0.000   0.834
    3        0.405   0.429   0.000   0.834
    4        0.405   0.426   0.000   0.832
    5        0.405   0.429   0.000   0.834
    6        0.405   0.429   0.000   0.834
    7        0.405   0.426   0.000   0.832
    8        0.405   0.429   0.000   0.834
    9        0.405   0.429   0.000   0.834
   10        0.405   0.427   0.000   0.832
   11        0.405   0.429   0.000   0.833
   12        0.405   0.429   0.000   0.834
   13        0.405   0.427   0.000   0.832
   14        0.405   0.429   0.000   0.833
   15        0.405   0.429   0.000   0.834
   16        0.405   0.427   0.000   0.832
   17        0.405   0.429   0.000   0.833
   18        0.405   0.429   0.000   0.834
   19        0.405   0.428   0.000   0.833
   20        0.404   0.427   0.000   0.831
   21        0.405   0.426   0.000   0.831
   22        0.405   0.428   0.000   0.833
   23        0.404   0.427   0.000   0.831
   24        0.405   0.426   0.000   0.831
   25        0.405   0.428   0.000   0.833
   26        0.404   0.427   0.000   0.831
   27        0.405   0.426   0.000   0.831
   28        0.333   0.351   5.137   5.820
   29        0.331   0.355   5.136   5.822
   30        0.335   0.350   5.135   5.820
   31        0.333   0.351   5.137   5.820
   32        0.331   0.355   5.136   5.822
   33        0.335   0.350   5.135   5.820
   34        0.333   0.351   5.137   5.820
   35        0.331   0.355   5.136   5.822
   36        0.335   0.350   5.135   5.820
   37        0.334   0.350   5.143   5.828
   38        0.333   0.353   5.131   5.817
   39        0.334   0.351   5.146   5.830
   40        0.334   0.350   5.143   5.828
   41        0.333   0.353   5.131   5.817
   42        0.334   0.351   5.146   5.830
   43        0.334   0.350   5.143   5.828
   44        0.333   0.353   5.131   5.817
   45        0.334   0.351   5.146   5.830
   46        0.334   0.351   5.128   5.813
   47        0.333   0.354   5.133   5.820
   48        0.334   0.351   5.126   5.811
   49        0.334   0.351   5.128   5.813
   50        0.333   0.354   5.133   5.820
   51        0.334   0.351   5.126   5.811
   52        0.334   0.351   5.128   5.813
   53        0.333   0.354   5.133   5.820
   54        0.334   0.351   5.126   5.811
--------------------------------------------------
tot         19.936  21.049 138.647 179.632
 


 magnetization (x)
 
# of ion       s       p       d       tot
------------------------------------------
    1        0.000   0.001   0.000   0.001
    2       -0.011  -0.019   0.000  -0.031
    3        0.010   0.019   0.000   0.029
    4        0.000   0.001   0.000   0.001
    5       -0.011  -0.019   0.000  -0.031
    6        0.010   0.019   0.000   0.029
    7        0.000   0.001   0.000   0.001
    8       -0.011  -0.019   0.000  -0.031
    9        0.010   0.019   0.000   0.029
   10       -0.000   0.001   0.000   0.001
   11       -0.011  -0.020   0.000  -0.032
   12        0.010   0.020   0.000   0.030
   13       -0.000   0.001   0.000   0.001
   14       -0.011  -0.020   0.000  -0.032
   15        0.010   0.020   0.000   0.030
   16       -0.000   0.001   0.000   0.001
   17       -0.011  -0.020   0.000  -0.032
   18        0.010   0.020   0.000   0.030
   19       -0.000  -0.000   0.000  -0.000
   20       -0.021  -0.036   0.000  -0.057
   21        0.001   0.003   0.000   0.004
   22       -0.000  -0.000   0.000  -0.000
   23       -0.021  -0.036   0.000  -0.057
   24        0.001   0.003   0.000   0.004
   25       -0.000  -0.000   0.000  -0.000
   26       -0.021  -0.036   0.000  -0.057
   27        0.001   0.003   0.000   0.004
   28        0.014   0.018   2.256   2.288
   29       -0.016  -0.012  -2.245  -2.273
   30       -0.018  -0.019  -2.355  -2.392
   31        0.014   0.018   2.256   2.288
   32       -0.016  -0.012  -2.245  -2.273
   33       -0.018  -0.019  -2.355  -2.392
   34        0.014   0.018   2.256   2.288
   35       -0.016  -0.012  -2.245  -2.273
   36       -0.018  -0.019  -2.355  -2.392
   37        0.017   0.020   2.358   2.396
   38        0.017   0.015   2.390   2.422
   39       -0.014  -0.017  -2.264  -2.295
   40        0.017   0.020   2.358   2.396
   41        0.017   0.015   2.390   2.422
   42       -0.014  -0.017  -2.264  -2.295
   43        0.017   0.020   2.358   2.396
   44        0.017   0.015   2.390   2.422
   45       -0.014  -0.017  -2.264  -2.295
   46        0.018   0.020   2.380   2.418
   47        0.017   0.015   2.388   2.419
   48       -0.015  -0.017  -2.288  -2.319
   49        0.018   0.020   2.380   2.418
   50        0.017   0.015   2.388   2.419
   51       -0.015  -0.017  -2.288  -2.319
   52        0.018   0.020   2.380   2.418
   53        0.017   0.015   2.388   2.419
   54       -0.015  -0.017  -2.288  -2.319
--------------------------------------------------
tot         -0.009  -0.026   7.862   7.827
 

 total amount of memory used by VASP MPI-rank0   869586. kBytes
=======================================================================

   base      :      30000. kBytes
   nonl-proj :      28494. kBytes
   fftplans  :      31580. kBytes
   grid      :      21385. kBytes
   one-center:        435. kBytes
   wavefun   :     757692. kBytes
 
  
  
 General timing and accounting informations for this job:
 ========================================================
  
                  Total CPU time used (sec):     1734.937
                            User time (sec):     1710.399
                          System time (sec):       24.537
                         Elapsed time (sec):     1775.326
  
                   Maximum memory used (kb):     1034888.
                   Average memory used (kb):           0.
  
                          Minor page faults:       595007
                          Major page faults:           16
                 Voluntary context switches:         3008
