   36   36    1    2
  0.1314651E+02  0.8250148E-09  0.8250148E-09  0.6953274E-09  0.2000000E-15
  1.000000000000000E-004
  CAR 
 AlMn_pv                                 
    180     36    116
 
  0.0000000E+00  0.0000000E+00  0.0000000E+00  0.6666667E-02
    1       -2.525466     -2.508042   1.000000   1.000000
    2       -0.362620     -0.380750   1.000000   1.000000
    3       -0.348116     -0.338273   1.000000   1.000000
    4       -0.337351     -0.294858   1.000000   1.000000
    5       -0.326025     -0.280118   1.000000   1.000000
    6       -0.107852     -0.116593   1.000000   1.000000
    7        1.341962      1.400174   1.000000   1.000000
    8        1.351014      1.411385   1.000000   1.000000
    9        1.371914      1.414832   1.000000   1.000000
   10        1.392712      1.427330   1.000000   1.000000
   11        1.411139      1.440154   1.000000   1.000000
   12        1.511395      1.559758   1.000000   1.000000
   13        1.551334      1.582637   1.000000   1.000000
   14        1.602500      1.639579   1.000000   1.000000
   15        1.637815      1.671495   1.000000   1.000000
   16        2.670702      2.735218   1.000000   1.000000
   17        2.699597      2.795687   1.000000   1.000000
   18        2.788675      2.901456   1.000000   1.000000
   19        2.827911      2.960455   1.000000   1.000000
   20        3.469555      3.454759   1.000000   1.000000
   21        3.478442      3.553628   1.000000   1.000000
   22        3.503524      3.639151   1.000000   1.000000
   23        3.578252      3.658096   1.000000   1.000000
   24        4.008522      4.136956   1.000000   1.000000
   25        4.141218      4.245574   1.000000   1.000000
   26        4.305805      4.449180   1.000000   1.000000
   27        4.411144      4.542019   1.000000   1.000000
   28        4.525470      4.558309   1.000000   1.000000
   29        4.526807      4.582637   1.000000   1.000000
   30        4.553359      4.657661   1.000000   1.000000
   31        4.559257      4.722306   1.000000   1.000000
   32        4.561326      4.742372   1.000000   1.000000
   33        4.575137      4.770700   1.000000   1.000000
   34        4.657563      4.811687   1.000000   1.000000
   35        4.670009      4.894857   1.000000   1.000000
   36        4.775479      4.960073   1.000000   1.000000
   37        4.779154      5.129618   1.000000   1.000000
   38        4.898561      5.305103   1.000000   1.000000
   39        4.908753      5.313648   1.000000   1.000000
   40        5.098445      5.333232   1.000000   1.000000
   41        5.216247      5.407651   1.000000   1.000000
   42        5.255510      5.466059   1.000000   1.000000
   43        5.335672      5.482855   1.000000   1.000000
   44        5.353845      5.538153   1.000000   1.000000
   45        5.354475      5.555226   1.000000   1.000000
   46        5.373077      5.562658   1.000000   1.000000
   47        5.390660      5.623049   1.000000   1.000000
   48        5.435169      5.650212   1.000000   1.000000
   49        5.446716      5.675238   1.000000   1.000000
   50        5.517965      5.681611   1.000000   1.000000
   51        5.524466      5.765471   1.000000   1.000000
   52        5.533193      5.772094   1.000000   1.000000
   53        5.580624      5.819816   1.000000   1.000000
   54        5.613928      5.832379   1.000000   1.000000
   55        5.700326      5.959829   1.000000   1.000000
   56        5.705023      6.044267   1.000000   1.000000
   57        5.772544      6.109849   1.000000   1.000000
   58        5.827211      6.259298   1.000000   1.000000
   59        5.858733      6.336360   1.000000   1.000000
   60        5.897032      6.386664   1.000000   1.000000
   61        5.946874      6.387748   1.000000   1.000000
   62        5.996660      6.485932   1.000000   1.000000
   63        6.098095      6.503677   1.000000   1.000000
   64        6.218474      6.536117   1.000000   1.000000
   65        6.232798      6.549197   1.000000   1.000000
   66        6.293991      6.565710   1.000000   1.000000
   67        6.300933      6.611784   1.000000   1.000000
   68        6.303054      6.636338   1.000000   1.000000
   69        6.356465      6.692671   1.000000   1.000000
   70        6.414455      6.788449   1.000000   1.000000
   71        6.440214      6.824311   1.000000   1.000000
   72        6.452061      6.851311   1.000000   1.000000
   73        6.495235      6.975821   1.000000   1.000000
   74        6.525242      7.013447   1.000000   1.000001
   75        6.676788      7.060890   1.000000   1.000005
   76        6.728978      7.202256   1.000000   1.000299
   77        6.746550      7.241052   1.000000   1.000770
   78        6.783425      7.296890   1.000000   1.002595
   79        6.799367      7.365765   1.000000   1.008933
   80        6.852846      7.484034   1.000000   1.032674
   81        6.971921      7.566545   1.000000   1.020651
   82        6.989690      7.622804   1.000000   0.953015
   83        6.994694      7.680058   1.000000   0.806864
   84        7.075426      7.722486   1.000008   0.651114
   85        7.175125      7.767186   1.000146   0.464786
   86        7.190084      7.927340   1.000218   0.000126
   87        7.252771      7.971627   1.001010  -0.030552
   88        7.317679      8.049104   1.003887  -0.029755
   89        7.365370      8.084859   1.008873  -0.021723
   90        7.409058      8.097208   1.016464  -0.018897
   91        7.428851      8.160490   1.020767  -0.007783
   92        7.502552      8.262653   1.034999  -0.001062
   93        7.539216      8.265275   1.032526  -0.001001
   94        7.637685      8.372654   0.922822  -0.000063
   95        7.736740      8.408499   0.592972  -0.000022
   96        7.738031      8.427123   0.587917  -0.000012
   97        7.939977      8.475834  -0.012336  -0.000002
   98        8.016135      8.492914  -0.034918  -0.000001
   99        8.048309      8.533039  -0.029918  -0.000000
  100        8.049132      8.620178  -0.029753  -0.000000
  101        8.111456      8.627578  -0.015892  -0.000000
  102        8.159576      8.724401  -0.007896  -0.000000
  103        8.239852      8.745939  -0.001751  -0.000000
  104        8.274667      8.766689  -0.000808  -0.000000
  105        8.427846      8.810619  -0.000012  -0.000000
  106        8.505355      8.835586  -0.000001  -0.000000
  107        8.535533      8.860610  -0.000000  -0.000000
  108        8.617535      8.964905  -0.000000  -0.000000
  109        8.639377      8.974296  -0.000000  -0.000000
  110        8.693949      9.013655  -0.000000  -0.000000
  111        8.836478      9.026233  -0.000000  -0.000000
  112        8.849028      9.057529  -0.000000  -0.000000
  113        8.894689      9.073176  -0.000000  -0.000000
  114        8.902798      9.090138  -0.000000  -0.000000
  115        9.036657      9.177923  -0.000000  -0.000000
  116        9.149477      9.218221  -0.000000  -0.000000
 
  0.2000000E+00  0.0000000E+00  0.0000000E+00  0.2666667E-01
    1       -2.434938     -2.417523   1.000000   1.000000
    2       -1.108962     -1.092133   1.000000   1.000000
    3       -0.270168     -0.247751   1.000000   1.000000
    4       -0.251906     -0.233719   1.000000   1.000000
    5       -0.042843     -0.050174   1.000000   1.000000
    6        0.557519      0.581752   1.000000   1.000000
    7        0.881824      0.901954   1.000000   1.000000
    8        0.915543      0.948146   1.000000   1.000000
    9        0.929803      0.954763   1.000000   1.000000
   10        1.428529      1.471144   1.000000   1.000000
   11        1.449113      1.495335   1.000000   1.000000
   12        1.453856      1.511124   1.000000   1.000000
   13        1.890445      1.965781   1.000000   1.000000
   14        2.287177      2.335929   1.000000   1.000000
   15        2.296774      2.357054   1.000000   1.000000
   16        2.300014      2.364281   1.000000   1.000000
   17        2.308507      2.392764   1.000000   1.000000
   18        2.789158      2.845845   1.000000   1.000000
   19        3.177555      3.315973   1.000000   1.000000
   20        3.216396      3.357876   1.000000   1.000000
   21        3.551907      3.624051   1.000000   1.000000
   22        3.591289      3.658750   1.000000   1.000000
   23        3.711288      3.769033   1.000000   1.000000
   24        3.992642      4.112242   1.000000   1.000000
   25        4.103730      4.202292   1.000000   1.000000
   26        4.250260      4.353312   1.000000   1.000000
   27        4.291132      4.409596   1.000000   1.000000
   28        4.362268      4.501456   1.000000   1.000000
   29        4.460179      4.581340   1.000000   1.000000
   30        4.460745      4.643499   1.000000   1.000000
   31        4.497701      4.647738   1.000000   1.000000
   32        4.514633      4.695751   1.000000   1.000000
   33        4.561334      4.706199   1.000000   1.000000
   34        4.594472      4.756560   1.000000   1.000000
   35        4.721780      4.972932   1.000000   1.000000
   36        4.825463      4.986212   1.000000   1.000000
   37        4.895243      5.135071   1.000000   1.000000
   38        4.940207      5.205301   1.000000   1.000000
   39        4.988861      5.228274   1.000000   1.000000
   40        5.029164      5.321373   1.000000   1.000000
   41        5.072359      5.350842   1.000000   1.000000
   42        5.218888      5.411014   1.000000   1.000000
   43        5.240233      5.423398   1.000000   1.000000
   44        5.333618      5.480111   1.000000   1.000000
   45        5.344424      5.535172   1.000000   1.000000
   46        5.365164      5.589066   1.000000   1.000000
   47        5.417645      5.595840   1.000000   1.000000
   48        5.441198      5.642526   1.000000   1.000000
   49        5.461821      5.646182   1.000000   1.000000
   50        5.511957      5.707441   1.000000   1.000000
   51        5.551801      5.747913   1.000000   1.000000
   52        5.574531      5.783550   1.000000   1.000000
   53        5.602320      5.870928   1.000000   1.000000
   54        5.703822      5.971930   1.000000   1.000000
   55        5.719703      6.001121   1.000000   1.000000
   56        5.757417      6.113911   1.000000   1.000000
   57        5.803953      6.181621   1.000000   1.000000
   58        5.808923      6.248123   1.000000   1.000000
   59        5.893504      6.298196   1.000000   1.000000
   60        5.911941      6.351770   1.000000   1.000000
   61        6.017618      6.395768   1.000000   1.000000
   62        6.018228      6.412086   1.000000   1.000000
   63        6.128045      6.436193   1.000000   1.000000
   64        6.172618      6.486673   1.000000   1.000000
   65        6.221126      6.554467   1.000000   1.000000
   66        6.264642      6.571533   1.000000   1.000000
   67        6.270216      6.633920   1.000000   1.000000
   68        6.337415      6.683423   1.000000   1.000000
   69        6.350412      6.731382   1.000000   1.000000
   70        6.351334      6.737407   1.000000   1.000000
   71        6.382673      6.807061   1.000000   1.000000
   72        6.433117      6.869992   1.000000   1.000000
   73        6.493919      7.019200   1.000000   1.000001
   74        6.528558      7.040368   1.000000   1.000002
   75        6.607907      7.129560   1.000000   1.000040
   76        6.646018      7.203580   1.000000   1.000308
   77        6.751190      7.217147   1.000000   1.000434
   78        6.753087      7.318592   1.000000   1.003955
   79        6.774820      7.430287   1.000000   1.021098
   80        6.820802      7.443104   1.000000   1.024047
   81        6.859220      7.461700   1.000000   1.028280
   82        6.914762      7.531105   1.000000   1.034179
   83        6.924041      7.623046   1.000000   0.952425
   84        6.978990      7.681947   1.000000   0.800770
   85        7.121128      7.772312   1.000031   0.443178
   86        7.151275      7.930905   1.000075  -0.003792
   87        7.210148      8.002352   1.000365  -0.035448
   88        7.280893      8.055285   1.001868  -0.028464
   89        7.411794      8.080404   1.017038  -0.022704
   90        7.442621      8.103432   1.023941  -0.017561
   91        7.522422      8.182605   1.035161  -0.005337
   92        7.541441      8.193083   1.031958  -0.004424
   93        7.621907      8.248377   0.954319  -0.001457
   94        7.661157      8.315544   0.863906  -0.000298
   95        7.753128      8.316131   0.524479  -0.000294
   96        7.849415      8.400950   0.156903  -0.000028
   97        8.001489      8.458710  -0.035437  -0.000004
   98        8.015640      8.498747  -0.034961  -0.000001
   99        8.043144      8.516904  -0.030959  -0.000001
  100        8.057170      8.557032  -0.028023  -0.000000
  101        8.127001      8.668688  -0.012916  -0.000000
  102        8.177316      8.684275  -0.005863  -0.000000
  103        8.197324      8.725228  -0.004093  -0.000000
  104        8.223240      8.761044  -0.002471  -0.000000
  105        8.435046      8.883658  -0.000009  -0.000000
  106        8.439995      8.924137  -0.000008  -0.000000
  107        8.517321      8.961485  -0.000001  -0.000000
  108        8.540091      8.993927  -0.000000  -0.000000
  109        8.724408      9.067359  -0.000000  -0.000000
  110        8.759285      9.092349  -0.000000  -0.000000
  111        8.892262      9.110349  -0.000000  -0.000000
  112        8.945890      9.145073  -0.000000  -0.000000
  113        9.021475      9.164689  -0.000000  -0.000000
  114        9.088685      9.203423  -0.000000  -0.000000
  115        9.184261      9.322749  -0.000000  -0.000000
  116        9.205120      9.341615  -0.000000  -0.000000
 
  0.4000000E+00  0.0000000E+00  0.0000000E+00  0.2666667E-01
    1       -2.165165     -2.147625   1.000000   1.000000
    2       -1.719598     -1.702748   1.000000   1.000000
    3       -0.025740     -0.002338   1.000000   1.000000
    4       -0.008404      0.010093   1.000000   1.000000
    5        0.149576      0.146729   1.000000   1.000000
    6        0.377396      0.402599   1.000000   1.000000
    7        0.393323      0.415632   1.000000   1.000000
    8        0.463977      0.469687   1.000000   1.000000
    9        1.568304      1.603022   1.000000   1.000000
   10        1.605969      1.654288   1.000000   1.000000
   11        1.629880      1.675268   1.000000   1.000000
   12        1.729492      1.790305   1.000000   1.000000
   13        1.911970      1.968232   1.000000   1.000000
   14        1.935455      1.993436   1.000000   1.000000
   15        2.184609      2.244569   1.000000   1.000000
   16        2.286205      2.412620   1.000000   1.000000
   17        2.665563      2.698542   1.000000   1.000000
   18        2.911553      2.988610   1.000000   1.000000
   19        2.955901      3.049433   1.000000   1.000000
   20        3.500787      3.674713   1.000000   1.000000
   21        3.594242      3.781607   1.000000   1.000000
   22        3.715345      3.782695   1.000000   1.000000
   23        3.743517      3.808647   1.000000   1.000000
   24        3.926166      4.025824   1.000000   1.000000
   25        3.992081      4.094751   1.000000   1.000000
   26        4.079504      4.181892   1.000000   1.000000
   27        4.119030      4.226032   1.000000   1.000000
   28        4.242461      4.402747   1.000000   1.000000
   29        4.260063      4.455905   1.000000   1.000000
   30        4.336373      4.519900   1.000000   1.000000
   31        4.338150      4.557678   1.000000   1.000000
   32        4.544648      4.570717   1.000000   1.000000
   33        4.600216      4.691394   1.000000   1.000000
   34        4.640168      4.756631   1.000000   1.000000
   35        4.729861      4.903243   1.000000   1.000000
   36        4.819244      5.057968   1.000000   1.000000
   37        4.951276      5.120685   1.000000   1.000000
   38        4.986207      5.228136   1.000000   1.000000
   39        5.003775      5.228312   1.000000   1.000000
   40        5.063424      5.238490   1.000000   1.000000
   41        5.094163      5.350248   1.000000   1.000000
   42        5.150957      5.395988   1.000000   1.000000
   43        5.270549      5.418687   1.000000   1.000000
   44        5.291583      5.477147   1.000000   1.000000
   45        5.338446      5.553294   1.000000   1.000000
   46        5.366676      5.598230   1.000000   1.000000
   47        5.423026      5.607320   1.000000   1.000000
   48        5.440622      5.647587   1.000000   1.000000
   49        5.484592      5.648448   1.000000   1.000000
   50        5.546882      5.685232   1.000000   1.000000
   51        5.567681      5.715727   1.000000   1.000000
   52        5.608857      5.771833   1.000000   1.000000
   53        5.615577      5.868344   1.000000   1.000000
   54        5.678065      5.982332   1.000000   1.000000
   55        5.701672      6.047589   1.000000   1.000000
   56        5.704872      6.060391   1.000000   1.000000
   57        5.774036      6.166521   1.000000   1.000000
   58        5.778341      6.198060   1.000000   1.000000
   59        5.962671      6.264335   1.000000   1.000000
   60        6.027643      6.288170   1.000000   1.000000
   61        6.088698      6.317098   1.000000   1.000000
   62        6.106881      6.386611   1.000000   1.000000
   63        6.129651      6.409329   1.000000   1.000000
   64        6.160337      6.443305   1.000000   1.000000
   65        6.201982      6.592355   1.000000   1.000000
   66        6.208513      6.642403   1.000000   1.000000
   67        6.222657      6.644905   1.000000   1.000000
   68        6.257989      6.730620   1.000000   1.000000
   69        6.263862      6.741376   1.000000   1.000000
   70        6.312423      6.791094   1.000000   1.000000
   71        6.386400      6.842760   1.000000   1.000000
   72        6.435674      6.917447   1.000000   1.000000
   73        6.446466      7.021026   1.000000   1.000001
   74        6.498087      7.092153   1.000000   1.000013
   75        6.553392      7.137804   1.000000   1.000051
   76        6.653114      7.191970   1.000000   1.000229
   77        6.658481      7.206235   1.000000   1.000330
   78        6.715422      7.355173   1.000000   1.007529
   79        6.760123      7.362737   1.000000   1.008504
   80        6.800718      7.416949   1.000000   1.018139
   81        6.853311      7.431606   1.000000   1.021397
   82        6.853871      7.566995   1.000000   1.020407
   83        6.883764      7.599132   1.000000   0.989844
   84        6.910819      7.660407   1.000000   0.865755
   85        6.970205      7.756152   1.000000   0.511415
   86        7.061293      7.880603   1.000005   0.076586
   87        7.198960      7.981998   1.000274  -0.033322
   88        7.223362      7.983918   1.000506  -0.033722
   89        7.363501      8.054509   1.008615  -0.028618
   90        7.410373      8.079918   1.016743  -0.022821
   91        7.492193      8.144428   1.033892  -0.010025
   92        7.688305      8.178203   0.778962  -0.005771
   93        7.692852      8.198847   0.763317  -0.003975
   94        7.802026      8.238354   0.322105  -0.001809
   95        7.830860      8.247128   0.216038  -0.001501
   96        7.885329      8.360261   0.066072  -0.000090
   97        7.907280      8.413736   0.026227  -0.000019
   98        7.982797      8.453721  -0.033500  -0.000005
   99        7.989208      8.541652  -0.034556  -0.000000
  100        8.065976      8.609394  -0.026033  -0.000000
  101        8.103340      8.612235  -0.017576  -0.000000
  102        8.167594      8.687484  -0.006922  -0.000000
  103        8.206161      8.705387  -0.003461  -0.000000
  104        8.223569      8.722256  -0.002455  -0.000000
  105        8.340881      8.781643  -0.000153  -0.000000
  106        8.468306      8.860039  -0.000003  -0.000000
  107        8.476451      8.960011  -0.000002  -0.000000
  108        8.550599      9.086336  -0.000000  -0.000000
  109        8.753004      9.148841  -0.000000  -0.000000
  110        8.873677      9.174030  -0.000000  -0.000000
  111        8.912168      9.200309  -0.000000  -0.000000
  112        9.016772      9.208944  -0.000000  -0.000000
  113        9.060632      9.210196  -0.000000  -0.000000
  114        9.141525      9.253559  -0.000000  -0.000000
  115        9.155192      9.330814  -0.000000  -0.000000
  116        9.453760      9.589558  -0.000000  -0.000000
 
  0.2000000E+00  0.2000000E+00  0.0000000E+00  0.1333333E-01
    1       -2.344682     -2.327243   1.000000   1.000000
    2       -1.031517     -1.042101   1.000000   1.000000
    3       -1.014852     -0.966847   1.000000   1.000000
    4        0.022079      0.016159   1.000000   1.000000
    5        0.215917      0.236840   1.000000   1.000000
    6        0.630271      0.630001   1.000000   1.000000
    7        0.648884      0.698787   1.000000   1.000000
    8        0.911502      0.952984   1.000000   1.000000
    9        0.982111      0.980505   1.000000   1.000000
   10        1.542470      1.599990   1.000000   1.000000
   11        1.672025      1.719240   1.000000   1.000000
   12        1.792187      1.824237   1.000000   1.000000
   13        1.803924      1.847105   1.000000   1.000000
   14        1.946565      2.028526   1.000000   1.000000
   15        1.994877      2.082545   1.000000   1.000000
   16        2.722563      2.801632   1.000000   1.000000
   17        2.820374      2.841910   1.000000   1.000000
   18        2.831040      2.920055   1.000000   1.000000
   19        2.854223      2.996434   1.000000   1.000000
   20        2.920566      3.028979   1.000000   1.000000
   21        3.579843      3.749538   1.000000   1.000000
   22        3.738277      3.812543   1.000000   1.000000
   23        3.757457      3.820005   1.000000   1.000000
   24        3.810592      3.873036   1.000000   1.000000
   25        4.106175      4.242410   1.000000   1.000000
   26        4.139966      4.266325   1.000000   1.000000
   27        4.252114      4.339321   1.000000   1.000000
   28        4.311789      4.382166   1.000000   1.000000
   29        4.348104      4.455805   1.000000   1.000000
   30        4.393162      4.608633   1.000000   1.000000
   31        4.439442      4.640665   1.000000   1.000000
   32        4.491374      4.642823   1.000000   1.000000
   33        4.578583      4.731655   1.000000   1.000000
   34        4.609286      4.887717   1.000000   1.000000
   35        4.775703      4.911487   1.000000   1.000000
   36        4.814887      5.052663   1.000000   1.000000
   37        4.845513      5.079319   1.000000   1.000000
   38        4.891392      5.121703   1.000000   1.000000
   39        4.966698      5.156148   1.000000   1.000000
   40        5.062802      5.166715   1.000000   1.000000
   41        5.114137      5.372114   1.000000   1.000000
   42        5.147027      5.389166   1.000000   1.000000
   43        5.261093      5.432490   1.000000   1.000000
   44        5.287949      5.454346   1.000000   1.000000
   45        5.400631      5.563398   1.000000   1.000000
   46        5.404488      5.605245   1.000000   1.000000
   47        5.420490      5.616148   1.000000   1.000000
   48        5.489893      5.640580   1.000000   1.000000
   49        5.492190      5.678644   1.000000   1.000000
   50        5.538576      5.748569   1.000000   1.000000
   51        5.559322      5.790718   1.000000   1.000000
   52        5.577550      5.879512   1.000000   1.000000
   53        5.649492      5.888906   1.000000   1.000000
   54        5.687161      5.967945   1.000000   1.000000
   55        5.751127      6.114763   1.000000   1.000000
   56        5.770530      6.121034   1.000000   1.000000
   57        5.799749      6.168988   1.000000   1.000000
   58        5.844372      6.179503   1.000000   1.000000
   59        5.878744      6.232360   1.000000   1.000000
   60        5.974199      6.335701   1.000000   1.000000
   61        6.092322      6.383250   1.000000   1.000000
   62        6.094379      6.394783   1.000000   1.000000
   63        6.114878      6.479073   1.000000   1.000000
   64        6.119503      6.539747   1.000000   1.000000
   65        6.158171      6.575828   1.000000   1.000000
   66        6.238054      6.577542   1.000000   1.000000
   67        6.286435      6.627245   1.000000   1.000000
   68        6.289294      6.751417   1.000000   1.000000
   69        6.350916      6.765641   1.000000   1.000000
   70        6.368131      6.793503   1.000000   1.000000
   71        6.374523      6.810877   1.000000   1.000000
   72        6.389209      6.896991   1.000000   1.000000
   73        6.520656      6.981715   1.000000   1.000000
   74        6.580621      7.065196   1.000000   1.000005
   75        6.590887      7.126398   1.000000   1.000037
   76        6.638099      7.174978   1.000000   1.000146
   77        6.677472      7.253684   1.000000   1.001030
   78        6.750294      7.275227   1.000000   1.001656
   79        6.760524      7.276124   1.000000   1.001687
   80        6.792604      7.305038   1.000000   1.003050
   81        6.840967      7.467123   1.000000   1.029455
   82        6.884989      7.554448   1.000000   1.027288
   83        6.908786      7.575434   1.000000   1.014238
   84        6.928909      7.691998   1.000000   0.766180
   85        7.047020      7.728416   1.000003   0.627948
   86        7.061931      7.893683   1.000005   0.049650
   87        7.206606      7.923451   1.000333   0.004329
   88        7.223309      7.999567   1.000505  -0.035384
   89        7.364332      8.073123   1.008733  -0.024392
   90        7.367467      8.107285   1.009168  -0.016766
   91        7.416563      8.143630   1.018053  -0.010134
   92        7.498216      8.226365   1.034603  -0.002319
   93        7.681184      8.249766   0.802971  -0.001415
   94        7.770972      8.305380   0.449051  -0.000385
   95        7.825871      8.379205   0.233129  -0.000052
   96        7.897201      8.427032   0.043031  -0.000012
   97        8.009596      8.444703  -0.035334  -0.000007
   98        8.052448      8.558163  -0.029051  -0.000000
   99        8.059306      8.567003  -0.027551  -0.000000
  100        8.107408      8.587736  -0.016729  -0.000000
  101        8.120825      8.628354  -0.014051  -0.000000
  102        8.173566      8.700079  -0.006257  -0.000000
  103        8.181052      8.714245  -0.005493  -0.000000
  104        8.311718      8.750577  -0.000329  -0.000000
  105        8.368481      8.861475  -0.000071  -0.000000
  106        8.424976      8.861745  -0.000013  -0.000000
  107        8.511258      8.949174  -0.000001  -0.000000
  108        8.546980      8.958952  -0.000000  -0.000000
  109        8.681100      8.992397  -0.000000  -0.000000
  110        8.719313      9.083057  -0.000000  -0.000000
  111        8.893996      9.150747  -0.000000  -0.000000
  112        9.016435      9.181474  -0.000000  -0.000000
  113        9.115452      9.199817  -0.000000  -0.000000
  114        9.125240      9.361224  -0.000000  -0.000000
  115        9.221592      9.372178  -0.000000  -0.000000
  116        9.349709      9.449265  -0.000000  -0.000000
 
  0.4000000E+00  0.2000000E+00  0.0000000E+00  0.2666667E-01
    1       -2.075776     -2.058158   1.000000   1.000000
    2       -1.631741     -1.615498   1.000000   1.000000
    3       -0.768479     -0.747373   1.000000   1.000000
    4       -0.350389     -0.331093   1.000000   1.000000
    5        0.214157      0.212779   1.000000   1.000000
    6        0.526789      0.534819   1.000000   1.000000
    7        0.869750      0.894177   1.000000   1.000000
    8        1.135242      1.158116   1.000000   1.000000
    9        1.240946      1.269955   1.000000   1.000000
   10        1.430501      1.463758   1.000000   1.000000
   11        1.642768      1.678160   1.000000   1.000000
   12        1.821595      1.882518   1.000000   1.000000
   13        2.133800      2.220981   1.000000   1.000000
   14        2.270000      2.326003   1.000000   1.000000
   15        2.343813      2.462402   1.000000   1.000000
   16        2.423210      2.521709   1.000000   1.000000
   17        2.575504      2.626505   1.000000   1.000000
   18        2.724871      2.761900   1.000000   1.000000
   19        3.095440      3.169634   1.000000   1.000000
   20        3.164126      3.324002   1.000000   1.000000
   21        3.192555      3.324308   1.000000   1.000000
   22        3.437269      3.506684   1.000000   1.000000
   23        3.583893      3.672476   1.000000   1.000000
   24        3.883113      3.965569   1.000000   1.000000
   25        3.893198      4.085904   1.000000   1.000000
   26        4.062124      4.193189   1.000000   1.000000
   27        4.114390      4.283628   1.000000   1.000000
   28        4.244708      4.407455   1.000000   1.000000
   29        4.309500      4.453566   1.000000   1.000000
   30        4.363021      4.512613   1.000000   1.000000
   31        4.427926      4.529800   1.000000   1.000000
   32        4.529070      4.570568   1.000000   1.000000
   33        4.633973      4.745645   1.000000   1.000000
   34        4.656441      4.885950   1.000000   1.000000
   35        4.777391      4.990590   1.000000   1.000000
   36        4.820866      5.038581   1.000000   1.000000
   37        4.841726      5.040550   1.000000   1.000000
   38        4.936025      5.114685   1.000000   1.000000
   39        5.004270      5.151692   1.000000   1.000000
   40        5.140799      5.303003   1.000000   1.000000
   41        5.164361      5.368094   1.000000   1.000000
   42        5.183459      5.400245   1.000000   1.000000
   43        5.267416      5.453659   1.000000   1.000000
   44        5.299017      5.465176   1.000000   1.000000