       N       E                     dE             d eps       ncg     rms          ort
DAV:   1     0.133860109502E+04    0.13386E+04   -0.59301E+04  4176   0.139E+03
DAV:   2    -0.728991489988E+02   -0.14115E+04   -0.13714E+04  4176   0.423E+02
DAV:   3    -0.241715911790E+03   -0.16882E+03   -0.14910E+03  4176   0.160E+02
DAV:   4    -0.267379872205E+03   -0.25664E+02   -0.22628E+02  4176   0.689E+01
DAV:   5    -0.269949315594E+03   -0.25694E+01   -0.24397E+01  4176   0.204E+01
DAV:   6    -0.270155303376E+03   -0.20599E+00   -0.20118E+00  4176   0.536E+00
DAV:   7    -0.270177854484E+03   -0.22551E-01   -0.22309E-01  4176   0.154E+00
DAV:   8    -0.270179488884E+03   -0.16344E-02   -0.16229E-02  4176   0.392E-01
SDA:   9    -0.602808147071E+02    0.20990E+03   -0.16229E-02  4176   0.233E+04 0.000E+00
CGA:  10    -0.205654353328E+03   -0.14537E+03   -0.14340E+03  4176   0.167E+03 0.432E+03
CGA:  11    -0.217203812543E+03   -0.11549E+02   -0.11475E+02  4176   0.576E+02 0.442E+01
CGA:  12    -0.224831350856E+03   -0.76275E+01   -0.75990E+01  4176   0.964E+02-0.893E-01
CGA:  13    -0.232823799456E+03   -0.79924E+01   -0.80178E+01  4176   0.193E+02 0.689E+00
CGA:  14    -0.234032779324E+03   -0.12090E+01   -0.12407E+01  4176   0.669E+01-0.304E+00
CGA:  15    -0.234581670430E+03   -0.54889E+00   -0.55151E+00  4176   0.618E+01-0.137E-01
CGA:  16    -0.235396075889E+03   -0.81441E+00   -0.81605E+00  4176   0.291E+01 0.148E-01
CGA:  17    -0.235608100821E+03   -0.21202E+00   -0.21169E+00  4176   0.130E+01 0.551E-02
CGA:  18    -0.235753214550E+03   -0.14511E+00   -0.14511E+00  4176   0.122E+01-0.287E-03
CGA:  19    -0.235907740032E+03   -0.15453E+00   -0.15470E+00  4176   0.704E+00 0.309E-03
CGA:  20    -0.235957943046E+03   -0.50203E-01   -0.50532E-01  4176   0.302E+00-0.322E-02
CGA:  21    -0.236000301404E+03   -0.42358E-01   -0.42370E-01  4176   0.385E+00 0.318E-03
CGA:  22    -0.236048082910E+03   -0.47782E-01   -0.47817E-01  4176   0.280E+00 0.214E-03
CGA:  23    -0.236068760218E+03   -0.20677E-01   -0.20676E-01  4176   0.979E-01-0.168E-03
CGA:  24    -0.236080790086E+03   -0.12030E-01   -0.12030E-01  4176   0.101E+00-0.131E-03
CGA:  25    -0.236094542785E+03   -0.13753E-01   -0.13750E-01  4176   0.980E-01-0.325E-03
CGA:  26    -0.236104011986E+03   -0.94692E-02   -0.94848E-02  4176   0.620E-01-0.223E-03
CGA:  27    -0.236112949100E+03   -0.89371E-02   -0.89374E-02  4176   0.590E-01-0.172E-03
CGA:  28    -0.236119377033E+03   -0.64279E-02   -0.64294E-02  4176   0.343E-01 0.804E-05
CGA:  29    -0.236122156820E+03   -0.27798E-02   -0.27784E-02  4176   0.180E-01 0.532E-04
CGA:  30    -0.236124682538E+03   -0.25257E-02   -0.25257E-02  4176   0.197E-01 0.346E-04
CGA:  31    -0.236127236554E+03   -0.25540E-02   -0.25541E-02  4176   0.150E-01 0.362E-04
CGA:  32    -0.236128722869E+03   -0.14863E-02   -0.14865E-02  4176   0.106E-01 0.191E-04
CGA:  33    -0.236130102034E+03   -0.13792E-02   -0.13793E-02  4176   0.940E-02 0.367E-04
CGA:  34    -0.236131319347E+03   -0.12173E-02   -0.12177E-02  4176   0.573E-02 0.612E-04
CGA:  35    -0.236131871112E+03   -0.55176E-03   -0.55317E-03  4176   0.400E-02 0.439E-04
CGA:  36    -0.236132331382E+03   -0.46027E-03   -0.46099E-03  4176   0.306E-02 0.382E-04
CGA:  37    -0.236132715828E+03   -0.38445E-03   -0.38465E-03  4176   0.248E-02 0.256E-04
CGA:  38    -0.236133018555E+03   -0.30273E-03   -0.30295E-03  4176   0.223E-02 0.181E-04
CGA:  39    -0.236133319217E+03   -0.30066E-03   -0.30062E-03  4176   0.168E-02 0.196E-04
SDA:  40    -0.236133473670E+03   -0.15445E-03   -0.15509E-03  4176   0.793E-03 0.132E-04
CGA:  41    -0.236133532886E+03   -0.59216E-04   -0.59178E-04  4176   0.706E-03-0.426E-06
CGA:  42    -0.236133648622E+03   -0.11574E-03   -0.11592E-03  4176   0.492E-03-0.494E-05
CGA:  43    -0.236133702257E+03   -0.53635E-04   -0.53493E-04  4176   0.462E-03-0.733E-05
CGA:  44    -0.236133765557E+03   -0.63300E-04   -0.63452E-04  4176   0.282E-03-0.131E-04
CGA:  45    -0.236133798272E+03   -0.32715E-04   -0.32683E-04  4176   0.334E-03-0.348E-05
CGA:  46    -0.236133841446E+03   -0.43173E-04   -0.43180E-04  4176   0.210E-03-0.209E-05
CGA:  47    -0.236133865580E+03   -0.24135E-04   -0.24125E-04  4176   0.182E-03-0.735E-06
CGA:  48    -0.236133903160E+03   -0.37580E-04   -0.37804E-04  4176   0.137E-03-0.270E-05
CGA:  49    -0.236133918293E+03   -0.15133E-04   -0.15139E-04  4176   0.134E-03 0.359E-06
CGA:  50    -0.236133938483E+03   -0.20190E-04   -0.20130E-04  4176   0.146E-03 0.331E-05
CGA:  51    -0.236133949324E+03   -0.10842E-04   -0.10958E-04  4176   0.431E-04 0.199E-05
CGA:  52    -0.236133956247E+03   -0.69227E-05   -0.68809E-05  4176   0.748E-04 0.150E-05
CGA:  53    -0.236133966242E+03   -0.99951E-05   -0.99979E-05  4176   0.357E-04 0.219E-05
CGA:  54    -0.236133971194E+03   -0.49520E-05   -0.49488E-05  4176   0.406E-04 0.815E-06
CGA:  55    -0.236133979292E+03   -0.80973E-05   -0.79982E-05  4176   0.103E-04 0.161E-05
CGA:  56    -0.236133980901E+03   -0.16092E-05   -0.16113E-05  4176   0.254E-04-0.935E-07
CGA:  57    -0.236133984390E+03   -0.34896E-05   -0.34921E-05  4176   0.113E-04-0.525E-06
CGA:  58    -0.236133985500E+03   -0.11095E-05   -0.11091E-05  4176   0.119E-04-0.115E-07
CGA:  59    -0.236133988239E+03   -0.27388E-05   -0.27490E-05  4176   0.141E-04-0.102E-06
CGA:  60    -0.236133989189E+03   -0.95014E-06   -0.95290E-06  4176   0.503E-05 0.259E-07
CGA:  61    -0.236133989864E+03   -0.67492E-06   -0.67463E-06  4176   0.710E-05 0.863E-07
CGA:  62    -0.236133990752E+03   -0.88847E-06   -0.89061E-06  4176   0.372E-05 0.200E-06
CGA:  63    -0.236133991029E+03   -0.27675E-06   -0.29066E-06  4176   0.226E-05 0.245E-06
CGA:  64    -0.236133991428E+03   -0.39842E-06   -0.38781E-06  4176   0.269E-05 0.347E-06
CGA:  65    -0.236133991733E+03   -0.30586E-06   -0.30856E-06  4176   0.134E-05 0.980E-07
CGA:  66    -0.236133991931E+03   -0.19758E-06   -0.19829E-06  4176   0.171E-05-0.104E-06
CGA:  67    -0.236133992061E+03   -0.13008E-06   -0.12608E-06  4176   0.818E-06-0.873E-07
CGA:  68    -0.236133992153E+03   -0.92246E-07   -0.93136E-07  4176   0.825E-06 0.125E-06
   1 F= -.23613399E+03 E0= -.23613179E+03  d E =-.661661E-02  mag=     9.3757
