 vasp.5.4.4.18Apr17-6-g9f103f2a35 (build Dec 20 2018 12:05:58) complex          
  
 executed on             LinuxIFC date 2019.06.20  14:38:23
 running on   32 total cores
 distrk:  each k-point on    8 cores,    4 groups
 distr:  one band on NCORES_PER_BAND=   4 cores,    2 groups


--------------------------------------------------------------------------------------------------------


 INCAR:
 POTCAR:    PAW_PBE Al 04Jan2001                  
 POTCAR:    PAW_PBE Mn 06Sep2000                  

 ----------------------------------------------------------------------------- 
|                                                                             |
|           W    W    AA    RRRRR   N    N  II  N    N   GGGG   !!!           |
|           W    W   A  A   R    R  NN   N  II  NN   N  G    G  !!!           |
|           W    W  A    A  R    R  N N  N  II  N N  N  G       !!!           |
|           W WW W  AAAAAA  RRRRR   N  N N  II  N  N N  G  GGG   !            |
|           WW  WW  A    A  R   R   N   NN  II  N   NN  G    G                |
|           W    W  A    A  R    R  N    N  II  N    N   GGGG   !!!           |
|                                                                             |
|      You have enabled k-point parallelism (KPAR>1).                         |
|      This developmental code was originally  written by Paul Kent at ORNL,  |
|      and carefully double checked in Vienna.                                |
|      GW as well as linear response parallelism added by Martijn Marsman     |
|      and Georg Kresse.                                                      |
|      Carefully verify results versus KPAR=1.                                |
|      Report problems to Paul Kent and Vienna.                               |
|                                                                             |
 ----------------------------------------------------------------------------- 

 POTCAR:    PAW_PBE Al 04Jan2001                  
   VRHFIN =Al: s2p1                                                             
   LEXCH  = PE                                                                  
   EATOM  =    53.5387 eV,    3.9350 Ry                                         
                                                                                
   TITEL  = PAW_PBE Al 04Jan2001                                                
   LULTRA =        F    use ultrasoft PP ?                                      
   IUNSCR =        1    unscreen: 0-lin 1-nonlin 2-no                           
   RPACOR =    1.500    partial core radius                                     
   POMASS =   26.981; ZVAL   =    3.000    mass and valenz                      
   RCORE  =    1.900    outmost cutoff radius                                   
   RWIGS  =    2.650; RWIGS  =    1.402    wigner-seitz radius (au A)           
   ENMAX  =  240.300; ENMIN  =  180.225 eV                                      
   ICORE  =        2    local potential                                         
   LCOR   =        T    correct aug charges                                     
   LPAW   =        T    paw PP                                                  
   EAUG   =  291.052                                                            
   DEXC   =    0.000                                                            
   RMAX   =    1.939    core radius for proj-oper                               
   RAUG   =    1.300    factor for augmentation sphere                          
   RDEP   =    1.966    radius for radial grids                                 
   RDEPT  =    1.856    core radius for aug-charge                              
                                                                                
   Atomic configuration                                                         
    6 entries                                                                   
     n  l   j            E        occ.                                          
     1  0  0.50     -1511.1048   2.0000                                         
     2  0  0.50      -108.1629   2.0000                                         
     2  1  1.50       -69.6402   6.0000                                         
     3  0  0.50        -7.7528   2.0000                                         
     3  1  1.50        -2.7121   1.0000                                         
     3  2  2.50        -2.7212   0.0000                                         
   Description                                                                  
     l       E           TYP  RCUT    TYP  RCUT                                 
     0     -7.7528455     23  1.900                                             
     0     -3.3096929     23  1.900                                             
     1     -2.7120682     23  1.900                                             
     1     13.6058260     23  1.900                                             
     2     -2.7211652      7  1.900                                             
  local pseudopotential read in
  partial core-charges read in
  partial kinetic energy density read in
  atomic valenz-charges read in
  non local Contribution for L=           0  read in
    real space projection operators read in
  non local Contribution for L=           0  read in
    real space projection operators read in
  non local Contribution for L=           1  read in
    real space projection operators read in
  non local Contribution for L=           1  read in
    real space projection operators read in
    PAW grid and wavefunctions read in
 
   number of l-projection  operators is LMAX  =           4
   number of lm-projection operators is LMMAX =           8
 
 POTCAR:    PAW_PBE Mn 06Sep2000                  
   VRHFIN =Mn: d6 s1                                                            
   LEXCH  = PE                                                                  
   EATOM  =   416.7541 eV,   30.6306 Ry                                         
                                                                                
   TITEL  = PAW_PBE Mn 06Sep2000                                                
   LULTRA =        F    use ultrasoft PP ?                                      
   IUNSCR =        1    unscreen: 0-lin 1-nonlin 2-no                           
   RPACOR =    2.000    partial core radius                                     
   POMASS =   54.938; ZVAL   =    7.000    mass and valenz                      
   RCORE  =    2.300    outmost cutoff radius                                   
   RWIGS  =    2.500; RWIGS  =    1.323    wigner-seitz radius (au A)           
   ENMAX  =  269.864; ENMIN  =  202.398 eV                                      
   RCLOC  =    1.725    cutoff for local pot                                    
   LCOR   =        T    correct aug charges                                     
   LPAW   =        T    paw PP                                                  
   EAUG   =  500.711                                                            
   DEXC   =    0.000                                                            
   RMAX   =    2.343    core radius for proj-oper                               
   RAUG   =    1.300    factor for augmentation sphere                          
   RDEP   =    2.338    radius for radial grids                                 
   RDEPT  =    1.911    core radius for aug-charge                              
                                                                                
   Atomic configuration                                                         
    9 entries                                                                   
     n  l   j            E        occ.                                          
     1  0  0.50     -6424.8288   2.0000                                         
     2  0  0.50      -739.1154   2.0000                                         
     2  1  1.50      -625.3949   6.0000                                         
     3  0  0.50       -81.6100   2.0000                                         
     3  1  1.50       -50.4667   6.0000                                         
     3  2  2.50        -3.3745   6.0000                                         
     4  0  0.50        -4.1331   1.0000                                         
     4  1  0.50        -4.0817   0.0000                                         
     4  3  2.50        -1.3606   0.0000                                         
   Description                                                                  
     l       E           TYP  RCUT    TYP  RCUT                                 
     2     -3.3744664     23  2.300                                             
     2     -4.7350490     23  2.300                                             
     0     -4.1331408     23  2.300                                             
     0      7.6656614     23  2.300                                             
     1     -2.7211652     23  2.300                                             
     1     20.4087390     23  2.300                                             
  local pseudopotential read in
  partial core-charges read in
  partial kinetic energy density read in
  atomic valenz-charges read in
  non local Contribution for L=           2  read in
    real space projection operators read in
  non local Contribution for L=           2  read in
    real space projection operators read in
  non local Contribution for L=           0  read in
    real space projection operators read in
  non local Contribution for L=           0  read in
    real space projection operators read in
  non local Contribution for L=           1  read in
    real space projection operators read in
  non local Contribution for L=           1  read in
    real space projection operators read in
    PAW grid and wavefunctions read in
 
   number of l-projection  operators is LMAX  =           6
   number of lm-projection operators is LMMAX =          18
 

 ----------------------------------------------------------------------------- 
|                                                                             |
|  ADVICE TO THIS USER RUNNING 'VASP/VAMP'   (HEAR YOUR MASTER'S VOICE ...):  |
|                                                                             |
|      You have a (more or less) 'large supercell' and for larger cells       |
|      it might be more efficient to use real space projection opertators     |
|      So try LREAL= Auto  in the INCAR   file.                               |
|      Mind:          For very  accurate calculation you might also keep the  |
|      reciprocal projection scheme          (i.e. LREAL=.FALSE.)             |
|                                                                             |
 ----------------------------------------------------------------------------- 

  PAW_PBE Al 04Jan2001                  :
 energy of atom  1       EATOM=  -53.5387
 kinetic energy error for atom=    0.0005 (will be added to EATOM!!)
  PAW_PBE Mn 06Sep2000                  :
 energy of atom  2       EATOM= -416.7541
 kinetic energy error for atom=    0.0080 (will be added to EATOM!!)
 
 
 POSCAR: NewRef: 18, @ ['Mn', array([1.37502469, 
  positions in cartesian coordinates
  velocities in cartesian coordinates
  No initial velocities read in
 exchange correlation table for  LEXCH =        8
   RHO(1)=    0.500       N(1)  =     2000
   RHO(2)=  100.500       N(2)  =     4000
 


--------------------------------------------------------------------------------------------------------


 ion  position               nearest neighbor table
   1  0.000  0.000  0.000-  20 2.61  24 2.61  32 2.61  36 2.61  31 2.61  23 2.61  35 2.61  19 2.61
                             3 2.75   7 2.75   5 2.75  13 2.75
   2  0.000  0.000  0.500-  19 2.61  23 2.61  31 2.61  35 2.61  20 2.61  32 2.61  24 2.61  36 2.61
                             4 2.75   8 2.75   6 2.75  14 2.75
   3  0.000  0.333  0.000-  20 2.61  32 2.61  22 2.61  34 2.61  19 2.61  31 2.61  33 2.61  21 2.61
                             9 2.75   1 2.75   5 2.75  15 2.75
   4  0.000  0.333  0.500-  19 2.61  31 2.61  21 2.61  33 2.61  32 2.61  20 2.61  22 2.61  34 2.61
                            10 2.75   2 2.75   6 2.75  16 2.75
   5  0.000  0.667  0.000-  22 2.61  34 2.61  24 2.61  36 2.61  21 2.61  33 2.61  35 2.61  23 2.61
                             3 2.75  11 2.75   1 2.75  17 2.75
   6  0.000  0.667  0.500-  21 2.61  33 2.61  23 2.61  35 2.61  34 2.61  22 2.61  24 2.61  36 2.61
                             4 2.75  12 2.75   2 2.75  18 2.75
   7  0.333  0.000  0.000-  20 2.61  24 2.61  26 2.61  30 2.61  23 2.61  19 2.61  29 2.61  25 2.61
                            13 2.75   1 2.75   9 2.75  11 2.75
   8  0.333  0.000  0.500-  19 2.61  23 2.61  25 2.61  29 2.61  20 2.61  24 2.61  26 2.61  30 2.61
                            14 2.75   2 2.75  10 2.75  12 2.75
   9  0.333  0.333  0.000-  20 2.61  22 2.61  26 2.61  19 2.61  28 2.61  21 2.61  25 2.61  27 2.61
                             3 2.75   7 2.75  11 2.75  15 2.75
  10  0.333  0.333  0.500-  19 2.61  21 2.61  25 2.61  20 2.61  27 2.61  26 2.61  22 2.61  28 2.61
                             4 2.75   8 2.75  12 2.75  16 2.75
  11  0.333  0.667  0.000-  22 2.61  24 2.61  28 2.61  21 2.61  30 2.61  23 2.61  27 2.61  29 2.61
                            17 2.75   5 2.75   9 2.75   7 2.75
  12  0.333  0.667  0.500-  21 2.61  23 2.61  27 2.61  22 2.61  29 2.61  28 2.61  24 2.61  30 2.61
                            18 2.75   6 2.75  10 2.75   8 2.75
  13  0.667  0.000  0.000-  26 2.61  30 2.61  32 2.61  36 2.61  29 2.61  25 2.61  35 2.61  31 2.61
                             7 2.75  15 2.75   1 2.75  17 2.75
  14  0.667  0.000  0.500-  25 2.61  29 2.61  31 2.61  35 2.61  26 2.61  30 2.61  32 2.61  36 2.61
                             8 2.75  16 2.75   2 2.75  18 2.75
  15  0.667  0.333  0.000-  26 2.61  28 2.61  32 2.61  25 2.61  34 2.61  27 2.61  31 2.61  33 2.61
                            17 2.75   9 2.75  13 2.75   3 2.75
  16  0.667  0.333  0.500-  25 2.61  27 2.61  31 2.61  26 2.61  33 2.61  32 2.61  28 2.61  34 2.61
                            18 2.75  10 2.75  14 2.75   4 2.75
  17  0.667  0.667  0.000-  28 2.61  30 2.61  34 2.61  27 2.61  36 2.61  29 2.61  33 2.61  35 2.61
                            11 2.75  15 2.75  13 2.75   5 2.75
  18  0.667  0.667  0.500-  27 2.61  29 2.61  33 2.61  28 2.61  35 2.61  34 2.61  30 2.61  36 2.61
                            12 2.75  16 2.75  14 2.75   6 2.75
  19  0.167  0.167  0.250-  10 2.61   8 2.61   4 2.61   9 2.61   2 2.61   7 2.61   3 2.61   1 2.61
                            21 2.75  25 2.75  23 2.75  31 2.75
  20  0.167  0.167  0.750-   9 2.61   7 2.61   3 2.61  10 2.61   1 2.61   4 2.61   8 2.61   2 2.61
                            22 2.75  26 2.75  24 2.75  32 2.75
  21  0.167  0.500  0.250-  12 2.61  10 2.61   6 2.61  11 2.61   4 2.61   9 2.61   5 2.61   3 2.61
                            19 2.75  23 2.75  27 2.75  33 2.75
  22  0.167  0.500  0.750-  11 2.61   9 2.61   5 2.61  12 2.61   3 2.61   6 2.61  10 2.61   4 2.61
                            20 2.75  24 2.75  28 2.75  34 2.75
  23  0.167  0.833  0.250-   8 2.61  12 2.61   2 2.61   6 2.61  11 2.61   7 2.61   5 2.61   1 2.61
                            21 2.75  29 2.75  19 2.75  35 2.75
  24  0.167  0.833  0.750-   7 2.61  11 2.61   1 2.61   5 2.61   8 2.61  12 2.61   2 2.61   6 2.61
                            22 2.75  30 2.75  20 2.75  36 2.75
  25  0.500  0.167  0.250-  16 2.61  14 2.61  10 2.61  15 2.61   8 2.61  13 2.61   9 2.61   7 2.61
                            19 2.75  27 2.75  31 2.75  29 2.75
  26  0.500  0.167  0.750-  15 2.61  13 2.61   9 2.61  16 2.61   7 2.61  10 2.61  14 2.61   8 2.61
                            20 2.75  28 2.75  32 2.75  30 2.75
  27  0.500  0.500  0.250-  18 2.61  16 2.61  12 2.61  17 2.61  10 2.61  15 2.61  11 2.61   9 2.61
                            21 2.75  25 2.75  29 2.75  33 2.75
  28  0.500  0.500  0.750-  17 2.61  15 2.61  11 2.61  18 2.61   9 2.61  12 2.61  16 2.61  10 2.61
                            22 2.75  26 2.75  30 2.75  34 2.75
  29  0.500  0.833  0.250-  14 2.61  18 2.61   8 2.61  12 2.61  17 2.61  13 2.61  11 2.61   7 2.61
                            23 2.75  27 2.75  35 2.75  25 2.75
  30  0.500  0.833  0.750-  13 2.61  17 2.61   7 2.61  11 2.61  14 2.61  18 2.61   8 2.61  12 2.61
                            24 2.75  28 2.75  36 2.75  26 2.75
  31  0.833  0.167  0.250-   4 2.61  16 2.61  14 2.61   2 2.61  15 2.61   3 2.61  13 2.61   1 2.61
                            25 2.75  33 2.75  19 2.75  35 2.75
  32  0.833  0.167  0.750-   3 2.61  15 2.61  13 2.61   1 2.61   4 2.61  16 2.61   2 2.61  14 2.61
                            26 2.75  34 2.75  20 2.75  36 2.75
  33  0.833  0.500  0.250-   6 2.61  18 2.61  16 2.61   4 2.61  17 2.61   5 2.61  15 2.61   3 2.61
                            27 2.75  31 2.75  35 2.75  21 2.75
  34  0.833  0.500  0.750-   5 2.61  17 2.61  15 2.61   3 2.61   6 2.61  18 2.61   4 2.61  16 2.61
                            28 2.75  32 2.75  36 2.75  22 2.75
  35  0.833  0.833  0.250-   2 2.61   6 2.61  14 2.61  18 2.61  13 2.61   5 2.61  17 2.61   1 2.61
                            29 2.75  33 2.75  31 2.75  23 2.75
  36  0.833  0.833  0.750-   1 2.61   5 2.61  13 2.61  17 2.61   2 2.61  14 2.61   6 2.61  18 2.61
                            30 2.75  34 2.75  32 2.75  24 2.75
 
  LATTYP: Found a simple tetragonal cell.
 ALAT       =     8.2501481662
 C/A-ratio  =     0.8428059861
  
  Lattice vectors:
  
 A1 = (   8.2501481662,   0.0000000000,   0.0000000000)
 A2 = (   0.0000000000,   8.2501481662,   0.0000000000)
 A3 = (   0.0000000000,   0.0000000000,   6.9532742610)


Analysis of symmetry for initial positions (statically):
=====================================================================
 Subroutine PRICEL returns following result:
 
  LATTYP: Found a simple tetragonal cell.
 ALAT       =     2.7500493888
 C/A-ratio  =     1.2642089792
  
  Lattice vectors:
  
 A1 = (   2.7500493888,   0.0000000000,   0.0000000000)
 A2 = (   0.0000000000,   2.7500493888,   0.0000000000)
 A3 = (   0.0000000000,   0.0000000000,   3.4766371305)
 
  18 primitive cells build up your supercell.
 

 Routine SETGRP: Setting up the symmetry group for a 
 simple tetragonal supercell.


 Subroutine GETGRP returns: Found 16 space group operations
 (whereof 16 operations were pure point group operations)
 out of a pool of 16 trial point group operations.


The static configuration has the point symmetry D_4h.


Analysis of symmetry for dynamics (positions and initial velocities):
=====================================================================
 Subroutine PRICEL returns following result:
 
  LATTYP: Found a simple tetragonal cell.
 ALAT       =     2.7500493888
 C/A-ratio  =     1.2642089792
  
  Lattice vectors:
  
 A1 = (   2.7500493888,   0.0000000000,   0.0000000000)
 A2 = (   0.0000000000,   2.7500493888,   0.0000000000)
 A3 = (   0.0000000000,   0.0000000000,   3.4766371305)
 
  18 primitive cells build up your supercell.
 

 Routine SETGRP: Setting up the symmetry group for a 
 simple tetragonal supercell.


 Subroutine GETGRP returns: Found 16 space group operations
 (whereof 16 operations were pure point group operations)
 out of a pool of 16 trial point group operations.


The dynamic configuration has the point symmetry D_4h.


Analysis of structural, dynamic, and magnetic symmetry:
=====================================================================
 Subroutine PRICEL returns:
 Original cell was already a primitive cell.
 

 Routine SETGRP: Setting up the symmetry group for a 
 simple tetragonal supercell.


 Subroutine GETGRP returns: Found  4 space group operations
 (whereof  2 operations were pure point group operations)
 out of a pool of 16 trial point group operations.


The magnetic configuration has the point symmetry C_1h.
 The point group associated with its full space group is C_2v.


 Subroutine INISYM returns: Found  4 space group operations
 (whereof  2 operations are pure point group operations),
 and found     1 'primitive' translations

 
 
 KPOINTS: automatic KPOINTS                       

Automatic generation of k-mesh.
 generate k-points for:    5    5    6
Space group operators:
 irot       det(A)        alpha          n_x          n_y          n_z        tau_x        tau_y        tau_z
    1     1.000000     0.000001     1.000000     0.000000     0.000000     0.000000     0.000000     0.000000
    2    -1.000000   180.000000     0.707107     0.707107     0.000000     0.000000     0.000000     0.000000
    3    -1.000000   179.999999     0.000000     0.000000     1.000000     0.000000     0.000000     0.500000
    4     1.000000   180.000000     0.707107    -0.707107     0.000000     0.000000     0.000000     0.500000
 
 Subroutine IBZKPT returns following result:
 ===========================================
 
 Found     36 irreducible k-points:
 
 Following reciprocal coordinates:
            Coordinates               Weight
  0.000000  0.000000  0.000000      1.000000
  0.200000  0.000000  0.000000      4.000000
  0.400000  0.000000  0.000000      4.000000
  0.200000  0.200000  0.000000      2.000000
  0.400000  0.200000  0.000000      4.000000
 -0.400000  0.200000  0.000000      4.000000
 -0.200000  0.200000  0.000000      2.000000
  0.400000  0.400000  0.000000      2.000000
 -0.400000  0.400000  0.000000      2.000000
  0.000000  0.000000  0.166667      2.000000
  0.200000  0.000000  0.166667      8.000000
  0.400000  0.000000  0.166667      8.000000
  0.200000  0.200000  0.166667      4.000000
  0.400000  0.200000  0.166667      8.000000
 -0.400000  0.200000  0.166667      8.000000
 -0.200000  0.200000  0.166667      4.000000
  0.400000  0.400000  0.166667      4.000000
 -0.400000  0.400000  0.166667      4.000000
  0.000000  0.000000  0.333333      2.000000
  0.200000  0.000000  0.333333      8.000000
  0.400000  0.000000  0.333333      8.000000
  0.200000  0.200000  0.333333      4.000000
  0.400000  0.200000  0.333333      8.000000
 -0.400000  0.200000  0.333333      8.000000
 -0.200000  0.200000  0.333333      4.000000
  0.400000  0.400000  0.333333      4.000000
 -0.400000  0.400000  0.333333      4.000000
  0.000000  0.000000  0.500000      1.000000
  0.200000  0.000000  0.500000      4.000000
  0.400000  0.000000  0.500000      4.000000
  0.200000  0.200000  0.500000      2.000000
  0.400000  0.200000  0.500000      4.000000
 -0.400000  0.200000  0.500000      4.000000
 -0.200000  0.200000  0.500000      2.000000
  0.400000  0.400000  0.500000      2.000000
 -0.400000  0.400000  0.500000      2.000000
 
 Following cartesian coordinates:
            Coordinates               Weight
  0.000000  0.000000  0.000000      1.000000
  0.024242  0.000000  0.000000      4.000000
  0.048484  0.000000  0.000000      4.000000
  0.024242  0.024242  0.000000      2.000000
  0.048484  0.024242  0.000000      4.000000
 -0.048484  0.024242  0.000000      4.000000
 -0.024242  0.024242  0.000000      2.000000
  0.048484  0.048484  0.000000      2.000000
 -0.048484  0.048484  0.000000      2.000000
  0.000000  0.000000  0.023970      2.000000
  0.024242  0.000000  0.023970      8.000000
  0.048484  0.000000  0.023970      8.000000
  0.024242  0.024242  0.023970      4.000000
  0.048484  0.024242  0.023970      8.000000
 -0.048484  0.024242  0.023970      8.000000
 -0.024242  0.024242  0.023970      4.000000
  0.048484  0.048484  0.023970      4.000000
 -0.048484  0.048484  0.023970      4.000000
  0.000000  0.000000  0.047939      2.000000
  0.024242  0.000000  0.047939      8.000000
  0.048484  0.000000  0.047939      8.000000
  0.024242  0.024242  0.047939      4.000000
  0.048484  0.024242  0.047939      8.000000
 -0.048484  0.024242  0.047939      8.000000
 -0.024242  0.024242  0.047939      4.000000
  0.048484  0.048484  0.047939      4.000000
 -0.048484  0.048484  0.047939      4.000000
  0.000000  0.000000  0.071909      1.000000
  0.024242  0.000000  0.071909      4.000000
  0.048484  0.000000  0.071909      4.000000
  0.024242  0.024242  0.071909      2.000000
  0.048484  0.024242  0.071909      4.000000
 -0.048484  0.024242  0.071909      4.000000
 -0.024242  0.024242  0.071909      2.000000
  0.048484  0.048484  0.071909      2.000000
 -0.048484  0.048484  0.071909      2.000000
 


--------------------------------------------------------------------------------------------------------




 Dimension of arrays:
   k-points           NKPTS =     36   k-points in BZ     NKDIM =     36   number of bands    NBANDS=    116
   number of dos      NEDOS =    301   number of ions     NIONS =     36
   non local maximal  LDIM  =      6   non local SUM 2l+1 LMDIM =     18
   total plane-waves  NPLWV = 139968
   max r-space proj   IRMAX =      1   max aug-charges    IRDMAX=  92271
   dimension x,y,z NGX =    54 NGY =   54 NGZ =   48
   dimension x,y,z NGXF=   108 NGYF=  108 NGZF=   96
   support grid    NGXF=   216 NGYF=  216 NGZF=  192
   ions per type =              18  18
   NGX,Y,Z   is equivalent  to a cutoff of  10.88, 10.88, 11.48 a.u.
   NGXF,Y,Z  is equivalent  to a cutoff of  21.76, 21.76, 22.95 a.u.

 SYSTEM =  AlMn_pv                                 
 POSCAR =  NewRef: 18, @ ['Mn', array([1.37502469, 

 Startparameter for this run:
   NWRITE =      2    write-flag & timer
   PREC   = accura    normal or accurate (medium, high low for compatibility)
   ISTART =      0    job   : 0-new  1-cont  2-samecut
   ICHARG =      2    charge: 1-file 2-atom 10-const
   ISPIN  =      2    spin polarized calculation?
   LNONCOLLINEAR =      F non collinear calculations
   LSORBIT =      F    spin-orbit coupling
   INIWAV =      1    electr: 0-lowe 1-rand  2-diag
   LASPH  =      F    aspherical Exc in radial PAW
   METAGGA=      F    non-selfconsistent MetaGGA calc.

 Electronic Relaxation 1
   ENCUT  =  404.8 eV  29.75 Ry    5.45 a.u.  13.53 13.53 11.41*2*pi/ulx,y,z
   ENINI  =  404.8     initial cutoff
   ENAUG  =  500.7 eV  augmentation charge cutoff
   NELM   =    100;   NELMIN=  4; NELMDL= -8     # of ELM steps 
   EDIFF  = 0.1E-06   stopping-criterion for ELM
   LREAL  =      F    real-space projection
   NLSPLINE    = F    spline interpolate recip. space projectors
   LCOMPAT=      F    compatible to vasp.4.4
   GGA_COMPAT  = T    GGA compatible to vasp.4.4-vasp.4.6
   LMAXPAW     = -100 max onsite density
   LMAXMIX     =    2 max onsite mixed and CHGCAR
   VOSKOWN=      0    Vosko Wilk Nusair interpolation
   ROPT   =    0.00000   0.00000
 Ionic relaxation
   EDIFFG = 0.1E-05   stopping-criterion for IOM
   NSW    =      0    number of steps for IOM
   NBLOCK =      1;   KBLOCK =      1    inner block; outer block 
   IBRION =     -1    ionic relax: 0-MD 1-quasi-New 2-CG
   NFREE  =      0    steps in history (QN), initial steepest desc. (CG)
   ISIF   =      2    stress and relaxation
   IWAVPR =     10    prediction:  0-non 1-charg 2-wave 3-comb
   ISYM   =      2    0-nonsym 1-usesym 2-fastsym
   LCORR  =      T    Harris-Foulkes like correction to forces

   POTIM  = 0.2000    time-step for ionic-motion
   TEIN   =    0.0    initial temperature
   TEBEG  =    0.0;   TEEND  =   0.0 temperature during run
   SMASS  =  -3.00    Nose mass-parameter (am)
   estimated Nose-frequenzy (Omega)   =  0.10E-29 period in steps =****** mass=  -0.156E-26a.u.
   SCALEE = 1.0000    scale energy and forces
   NPACO  =    256;   APACO  = 16.0  distance and # of slots for P.C.
   PSTRESS=    0.0 pullay stress

  Mass of Ions in am
   POMASS =  26.98 54.94
  Ionic Valenz
   ZVAL   =   3.00  7.00
  Atomic Wigner-Seitz radii
   RWIGS  =  -1.00 -1.00
  virtual crystal weights 
   VCA    =   1.00  1.00
   NELECT =     180.0000    total number of electrons
   NUPDOWN=      -1.0000    fix difference up-down

 DOS related values:
   EMIN   =  10.00;   EMAX   =-10.00  energy-range for DOS
   EFERMI =   0.00
   ISMEAR =     1;   SIGMA  =   0.20  broadening in eV -4-tet -1-fermi 0-gaus

 Electronic relaxation 2 (details)
   IALGO  =     58    algorithm
   LDIAG  =      T    sub-space diagonalisation (order eigenvalues)
   LSUBROT=      F    optimize rotation matrix (better conditioning)
   TURBO    =      0    0=normal 1=particle mesh
   IRESTART =      0    0=no restart 2=restart with 2 vectors
   NREBOOT  =      0    no. of reboots
   NMIN     =      0    reboot dimension
   EREF     =   0.00    reference energy to select bands
   IMIX   =      4    mixing-type and parameters
     AMIX     =   0.40;   BMIX     =  1.00
     AMIX_MAG =   1.60;   BMIX_MAG =  1.00
     AMIN     =   0.10
     WC   =   100.;   INIMIX=   1;  MIXPRE=   1;  MAXMIX= -45

 Intra band minimization:
   WEIMIN = 0.0000     energy-eigenvalue tresh-hold
   EBREAK =  0.22E-09  absolut break condition
   DEPER  =   0.30     relativ break condition  

   TIME   =   0.40     timestep for ELM

  volume/ion in A,a.u.               =      13.15        88.72
  Fermi-wavevector in a.u.,A,eV,Ry     =   1.186118  2.241439 19.141722  1.406877
  Thomas-Fermi vector in A             =   2.322298
 
 Write flags
   LWAVE        =      F    write WAVECAR
   LDOWNSAMPLE  =      F    k-point downsampling of WAVECAR
   LCHARG       =      F    write CHGCAR
   LVTOT        =      F    write LOCPOT, total local potential
   LVHAR        =      F    write LOCPOT, Hartree potential only
   LELF         =      F    write electronic localiz. function (ELF)
   LORBIT       =     10    0 simple, 1 ext, 2 COOP (PROOUT), +10 PAW based schemes


 Dipole corrections
   LMONO  =      F    monopole corrections only (constant potential shift)
   LDIPOL =      F    correct potential (dipole corrections)
   IDIPOL =      0    1-x, 2-y, 3-z, 4-all directions 
   EPSILON=  1.0000000 bulk dielectric constant

 Exchange correlation treatment:
   GGA     =    --    GGA type
   LEXCH   =     8    internal setting for exchange type
   VOSKOWN=      0    Vosko Wilk Nusair interpolation
   LHFCALC =     F    Hartree Fock is set to
   LHFONE  =     F    Hartree Fock one center treatment
   AEXX    =    0.0000 exact exchange contribution

 Linear response parameters
   LEPSILON=     F    determine dielectric tensor
   LRPA    =     F    only Hartree local field effects (RPA)
   LNABLA  =     F    use nabla operator in PAW spheres
   LVEL    =     F    velocity operator in full k-point grid
   LINTERFAST=   F  fast interpolation
   KINTER  =     0    interpolate to denser k-point grid
   CSHIFT  =0.1000    complex shift for real part using Kramers Kronig
   OMEGAMAX=  -1.0    maximum frequency
   DEG_THRESHOLD= 0.2000000E-02 threshold for treating states as degnerate
   RTIME   =   -0.100 relaxation time in fs
  (WPLASMAI=    0.000 imaginary part of plasma frequency in eV, 0.658/RTIME)
   DFIELD  = 0.0000000 0.0000000 0.0000000 field for delta impulse in time
 
 Orbital magnetization related:
   ORBITALMAG=     F  switch on orbital magnetization
   LCHIMAG   =     F  perturbation theory with respect to B field
   DQ        =  0.001000  dq finite difference perturbation B field
   LLRAUG    =     F  two centre corrections for induced B field



--------------------------------------------------------------------------------------------------------


 Static calculation
 charge density and potential will be updated during run
 spin polarized calculation
 Conjugate gradient for all bands (Freysoldt, et al. PRB 79, 241103 (2009))
 preconditioned conjugated gradient                                        
 perform sub-space diagonalisation
    before iterative eigenvector-optimisation
 modified Broyden-mixing scheme, WC =      100.0
 initial mixing is a Kerker type mixing with AMIX =  0.4000 and BMIX =      1.0000
 Hartree-type preconditioning will be used
 using additional bands           26
 reciprocal scheme for non local part
 use partial core corrections
 no Harris-corrections to forces 
 use gradient corrections 
 use of overlap-Matrix (Vanderbilt PP)
 Methfessel and Paxton  Order N= 1 SIGMA  =   0.20


--------------------------------------------------------------------------------------------------------


  energy-cutoff  :      404.80
  volume of cell :      473.27
      direct lattice vectors                 reciprocal lattice vectors
     8.250148166  0.000000000  0.000000000     0.121209944  0.000000000  0.000000000
     0.000000000  8.250148166  0.000000000     0.000000000  0.121209944  0.000000000
     0.000000000  0.000000000  6.953274261     0.000000000  0.000000000  0.143817137

  length of vectors
     8.250148166  8.250148166  6.953274261     0.121209944  0.121209944  0.143817137


 
 k-points in units of 2pi/SCALE and weight: automatic KPOINTS                       
   0.00000000  0.00000000  0.00000000       0.007
   0.02424199  0.00000000  0.00000000       0.027
   0.04848398  0.00000000  0.00000000       0.027
   0.02424199  0.02424199  0.00000000       0.013
   0.04848398  0.02424199  0.00000000       0.027
  -0.04848398  0.02424199  0.00000000       0.027
  -0.02424199  0.02424199  0.00000000       0.013
   0.04848398  0.04848398  0.00000000       0.013
  -0.04848398  0.04848398  0.00000000       0.013
   0.00000000  0.00000000  0.02396952       0.013
   0.02424199  0.00000000  0.02396952       0.053
   0.04848398  0.00000000  0.02396952       0.053
   0.02424199  0.02424199  0.02396952       0.027
   0.04848398  0.02424199  0.02396952       0.053
  -0.04848398  0.02424199  0.02396952       0.053
  -0.02424199  0.02424199  0.02396952       0.027
   0.04848398  0.04848398  0.02396952       0.027
  -0.04848398  0.04848398  0.02396952       0.027
   0.00000000  0.00000000  0.04793905       0.013
   0.02424199  0.00000000  0.04793905       0.053
   0.04848398  0.00000000  0.04793905       0.053
   0.02424199  0.02424199  0.04793905       0.027
   0.04848398  0.02424199  0.04793905       0.053
  -0.04848398  0.02424199  0.04793905       0.053
  -0.02424199  0.02424199  0.04793905       0.027
   0.04848398  0.04848398  0.04793905       0.027
  -0.04848398  0.04848398  0.04793905       0.027
   0.00000000  0.00000000  0.07190857       0.007
   0.02424199  0.00000000  0.07190857       0.027
   0.04848398  0.00000000  0.07190857       0.027
   0.02424199  0.02424199  0.07190857       0.013
   0.04848398  0.02424199  0.07190857       0.027
  -0.04848398  0.02424199  0.07190857       0.027
  -0.02424199  0.02424199  0.07190857       0.013
   0.04848398  0.04848398  0.07190857       0.013
  -0.04848398  0.04848398  0.07190857       0.013
 
 k-points in reciprocal lattice and weights: automatic KPOINTS                       
   0.00000000  0.00000000  0.00000000       0.007
   0.20000000  0.00000000  0.00000000       0.027
   0.40000000  0.00000000  0.00000000       0.027
   0.20000000  0.20000000  0.00000000       0.013
   0.40000000  0.20000000  0.00000000       0.027
  -0.40000000  0.20000000  0.00000000       0.027
  -0.20000000  0.20000000  0.00000000       0.013
   0.40000000  0.40000000  0.00000000       0.013
  -0.40000000  0.40000000  0.00000000       0.013
   0.00000000  0.00000000  0.16666667       0.013
   0.20000000  0.00000000  0.16666667       0.053
   0.40000000  0.00000000  0.16666667       0.053
   0.20000000  0.20000000  0.16666667       0.027
   0.40000000  0.20000000  0.16666667       0.053
  -0.40000000  0.20000000  0.16666667       0.053
  -0.20000000  0.20000000  0.16666667       0.027
   0.40000000  0.40000000  0.16666667       0.027
  -0.40000000  0.40000000  0.16666667       0.027
   0.00000000  0.00000000  0.33333333       0.013
   0.20000000  0.00000000  0.33333333       0.053
   0.40000000  0.00000000  0.33333333       0.053
   0.20000000  0.20000000  0.33333333       0.027
   0.40000000  0.20000000  0.33333333       0.053
  -0.40000000  0.20000000  0.33333333       0.053
  -0.20000000  0.20000000  0.33333333       0.027
   0.40000000  0.40000000  0.33333333       0.027
  -0.40000000  0.40000000  0.33333333       0.027
   0.00000000  0.00000000  0.50000000       0.007
   0.20000000  0.00000000  0.50000000       0.027
   0.40000000  0.00000000  0.50000000       0.027
   0.20000000  0.20000000  0.50000000       0.013
   0.40000000  0.20000000  0.50000000       0.027
  -0.40000000  0.20000000  0.50000000       0.027
  -0.20000000  0.20000000  0.50000000       0.013
   0.40000000  0.40000000  0.50000000       0.013
  -0.40000000  0.40000000  0.50000000       0.013
 
 position of ions in fractional coordinates (direct lattice) 
   0.00000000  0.00000000  0.00000000
   0.00000000  0.00000000  0.50000000
   0.00000000  0.33333333  0.00000000
   0.00000000  0.33333333  0.50000000
   0.00000000  0.66666667  0.00000000
   0.00000000  0.66666667  0.50000000
   0.33333333  0.00000000  0.00000000
   0.33333333  0.00000000  0.50000000
   0.33333333  0.33333333  0.00000000
   0.33333333  0.33333333  0.50000000
   0.33333333  0.66666667  0.00000000
   0.33333333  0.66666667  0.50000000
   0.66666667  0.00000000  0.00000000
   0.66666667  0.00000000  0.50000000
   0.66666667  0.33333333  0.00000000
   0.66666667  0.33333333  0.50000000
   0.66666667  0.66666667  0.00000000
   0.66666667  0.66666667  0.50000000
   0.16666667  0.16666667  0.25000000
   0.16666667  0.16666667  0.75000000
   0.16666667  0.50000000  0.25000000
   0.16666667  0.50000000  0.75000000
   0.16666667  0.83333333  0.25000000
   0.16666667  0.83333333  0.75000000
   0.50000000  0.16666667  0.25000000
   0.50000000  0.16666667  0.75000000
   0.50000000  0.50000000  0.25000000
   0.50000000  0.50000000  0.75000000
   0.50000000  0.83333333  0.25000000
   0.50000000  0.83333333  0.75000000
   0.83333333  0.16666667  0.25000000
   0.83333333  0.16666667  0.75000000
   0.83333333  0.50000000  0.25000000
   0.83333333  0.50000000  0.75000000
   0.83333333  0.83333333  0.25000000
   0.83333333  0.83333333  0.75000000
 
 position of ions in cartesian coordinates  (Angst):
   0.00000000  0.00000000  0.00000000
   0.00000000  0.00000000  3.47663713
   0.00000000  2.75004939  0.00000000
   0.00000000  2.75004939  3.47663713
   0.00000000  5.50009878  0.00000000
   0.00000000  5.50009878  3.47663713
   2.75004939  0.00000000  0.00000000
   2.75004939  0.00000000  3.47663713
   2.75004939  2.75004939  0.00000000
   2.75004939  2.75004939  3.47663713
   2.75004939  5.50009878  0.00000000
   2.75004939  5.50009878  3.47663713
   5.50009878  0.00000000  0.00000000
   5.50009878  0.00000000  3.47663713
   5.50009878  2.75004939  0.00000000
   5.50009878  2.75004939  3.47663713
   5.50009878  5.50009878  0.00000000
   5.50009878  5.50009878  3.47663713
   1.37502469  1.37502469  1.73831857
   1.37502469  1.37502469  5.21495570
   1.37502469  4.12507408  1.73831857
   1.37502469  4.12507408  5.21495570
   1.37502469  6.87512347  1.73831857
   1.37502469  6.87512347  5.21495570
   4.12507408  1.37502469  1.73831857
   4.12507408  1.37502469  5.21495570
   4.12507408  4.12507408  1.73831857
   4.12507408  4.12507408  5.21495570
   4.12507408  6.87512347  1.73831857
   4.12507408  6.87512347  5.21495570
   6.87512347  1.37502469  1.73831857
   6.87512347  1.37502469  5.21495570
   6.87512347  4.12507408  1.73831857
   6.87512347  4.12507408  5.21495570
   6.87512347  6.87512347  1.73831857
   6.87512347  6.87512347  5.21495570
 


--------------------------------------------------------------------------------------------------------


 k-point  1 :   0.0000 0.0000 0.0000  plane waves:    8799
 k-point  2 :   0.2000 0.0000 0.0000  plane waves:    8753
 k-point  3 :   0.4000 0.0000 0.0000  plane waves:    8757
 k-point  4 :   0.2000 0.2000 0.0000  plane waves:    8767
 k-point  5 :   0.4000 0.2000 0.0000  plane waves:    8761
 k-point  6 :  -0.4000 0.2000 0.0000  plane waves:    8761
 k-point  7 :  -0.2000 0.2000 0.0000  plane waves:    8767
 k-point  8 :   0.4000 0.4000 0.0000  plane waves:    8731
 k-point  9 :  -0.4000 0.4000 0.0000  plane waves:    8731
 k-point 10 :   0.0000 0.0000 0.1667  plane waves:    8763
 k-point 11 :   0.2000 0.0000 0.1667  plane waves:    8771
 k-point 12 :   0.4000 0.0000 0.1667  plane waves:    8747
 k-point 13 :   0.2000 0.2000 0.1667  plane waves:    8764
 k-point 14 :   0.4000 0.2000 0.1667  plane waves:    8768
 k-point 15 :  -0.4000 0.2000 0.1667  plane waves:    8768
 k-point 16 :  -0.2000 0.2000 0.1667  plane waves:    8764
 k-point 17 :   0.4000 0.4000 0.1667  plane waves:    8740
 k-point 18 :  -0.4000 0.4000 0.1667  plane waves:    8740
 k-point 19 :   0.0000 0.0000 0.3333  plane waves:    8743
 k-point 20 :   0.2000 0.0000 0.3333  plane waves:    8736
 k-point 21 :   0.4000 0.0000 0.3333  plane waves:    8753
 k-point 22 :   0.2000 0.2000 0.3333  plane waves:    8753
 k-point 23 :   0.4000 0.2000 0.3333  plane waves:    8743
 k-point 24 :  -0.4000 0.2000 0.3333  plane waves:    8743
 k-point 25 :  -0.2000 0.2000 0.3333  plane waves:    8753
 k-point 26 :   0.4000 0.4000 0.3333  plane waves:    8755
 k-point 27 :  -0.4000 0.4000 0.3333  plane waves:    8755
 k-point 28 :   0.0000 0.0000 0.5000  plane waves:    8742
 k-point 29 :   0.2000 0.0000 0.5000  plane waves:    8756
 k-point 30 :   0.4000 0.0000 0.5000  plane waves:    8744
 k-point 31 :   0.2000 0.2000 0.5000  plane waves:    8762
 k-point 32 :   0.4000 0.2000 0.5000  plane waves:    8732
 k-point 33 :  -0.4000 0.2000 0.5000  plane waves:    8732
 k-point 34 :  -0.2000 0.2000 0.5000  plane waves:    8762
 k-point 35 :   0.4000 0.4000 0.5000  plane waves:    8736
 k-point 36 :  -0.4000 0.4000 0.5000  plane waves:    8736

 maximum and minimum number of plane-waves per node :      2206     2165

 maximum number of plane-waves:      8799
 maximum index in each direction: 
   IXMAX=   13   IYMAX=   13   IZMAX=   11
   IXMIN=  -13   IYMIN=  -13   IZMIN=  -11


 parallel 3D FFT for wavefunctions:
    minimum data exchange during FFTs selected (reduces bandwidth)
 parallel 3D FFT for charge:
    minimum data exchange during FFTs selected (reduces bandwidth)


 total amount of memory used by VASP MPI-rank0   557520. kBytes
=======================================================================

   base      :      30000. kBytes
   nonl-proj :      24142. kBytes
   fftplans  :      21726. kBytes
   grid      :      14732. kBytes
   one-center:        279. kBytes
   wavefun   :     466641. kBytes
 
     INWAV:  cpu time    0.0000: real time    0.0000
 Broyden mixing: mesh for mixing (old mesh)
   NGX = 27   NGY = 27   NGZ = 23
  (NGX  =108   NGY  =108   NGZ  = 96)
  gives a total of  16767 points

 initial charge density was supplied:
 charge density of overlapping atoms calculated
 number of electron     180.0000000 magnetization      12.0000000
 keeping initial charge density in first step


--------------------------------------------------------------------------------------------------------


 Maximum index for augmentation-charges        11261 (set IRDMAX)


--------------------------------------------------------------------------------------------------------


 First call to EWALD:  gamma=   0.227
 Maximum number of real-space cells 3x 3x 3
 Maximum number of reciprocal cells 3x 3x 3

    FEWALD:  cpu time    0.0022: real time    0.0022


--------------------------------------- Iteration      1(   1)  ---------------------------------------


    POTLOK:  cpu time    0.2518: real time    0.2549
    SETDIJ:  cpu time    0.3196: real time    0.3196
    TRIAL :  cpu time   13.4446: real time   13.5276
    CORREC:  cpu time    0.0048: real time    0.0050
    --------------------------------------------
      LOOP:  cpu time   14.1625: real time   14.2730

 eigenvalue-minimisations  : 16704
 total energy-change (2. order) : 0.1338601E+04  (-0.5930139E+04)
 number of electron     180.0000000 magnetization      12.0000000
 augmentation part      180.0000000 magnetization      12.0000000

 Free energy of the ion-electron system (eV)
  ---------------------------------------------------
  alpha Z        PSCENC =       532.25742704
  Ewald energy   TEWEN  =     -8601.05107233
  -Hartree energ DENC   =     -1903.73857242
  -exchange      EXHF   =         0.00000000
  -V(xc)+E(xc)   XCENC  =      -664.79942088
  PAW double counting   =      8494.55058411    -7650.81563588
  entropy T*S    EENTRO =        -0.00961273
  eigenvalues    EBANDS =      2667.09138965
  atomic energy  EATOM  =      8465.11600846
  ---------------------------------------------------
  free energy    TOTEN  =      1338.60109502 eV

  energy without entropy =     1338.61070775  energy(sigma->0) =     1338.60429926


--------------------------------------------------------------------------------------------------------




--------------------------------------- Iteration      1(   2)  ---------------------------------------


    TRIAL :  cpu time   13.3825: real time   13.5237
    CORREC:  cpu time    0.0059: real time    0.0060
    --------------------------------------------
      LOOP:  cpu time   13.3894: real time   13.5333

 eigenvalue-minimisations  : 16704
 total energy-change (2. order) :-0.1411500E+04  (-0.1371365E+04)
 number of electron     180.0000000 magnetization      12.0000000
 augmentation part      180.0000000 magnetization      12.0000000

 Free energy of the ion-electron system (eV)
  ---------------------------------------------------
  alpha Z        PSCENC =       532.25742704
  Ewald energy   TEWEN  =     -8601.05107233
  -Hartree energ DENC   =     -1903.73857242
  -exchange      EXHF   =         0.00000000
  -V(xc)+E(xc)   XCENC  =      -664.79942088
  PAW double counting   =      8494.55058411    -7650.81563588
  entropy T*S    EENTRO =        -0.00583645
  eigenvalues    EBANDS =      1255.58736935
  atomic energy  EATOM  =      8465.11600846
  ---------------------------------------------------
  free energy    TOTEN  =       -72.89914900 eV

  energy without entropy =      -72.89331255  energy(sigma->0) =      -72.89720351


--------------------------------------------------------------------------------------------------------




--------------------------------------- Iteration      1(   3)  ---------------------------------------


    TRIAL :  cpu time   18.9663: real time   19.1280
    CORREC:  cpu time    0.0067: real time    0.0077
    --------------------------------------------
      LOOP:  cpu time   18.9765: real time   19.1394

 eigenvalue-minimisations  : 25340
 total energy-change (2. order) :-0.1688168E+03  (-0.1490959E+03)
 number of electron     180.0000000 magnetization      12.0000000
 augmentation part      180.0000000 magnetization      12.0000000

 Free energy of the ion-electron system (eV)
  ---------------------------------------------------
  alpha Z        PSCENC =       532.25742704
  Ewald energy   TEWEN  =     -8601.05107233
  -Hartree energ DENC   =     -1903.73857242
  -exchange      EXHF   =         0.00000000
  -V(xc)+E(xc)   XCENC  =      -664.79942088
  PAW double counting   =      8494.55058411    -7650.81563588
  entropy T*S    EENTRO =         0.00644591
  eigenvalues    EBANDS =      1086.75832420
  atomic energy  EATOM  =      8465.11600846
  ---------------------------------------------------
  free energy    TOTEN  =      -241.71591179 eV

  energy without entropy =     -241.72235770  energy(sigma->0) =     -241.71806043


--------------------------------------------------------------------------------------------------------




--------------------------------------- Iteration      1(   4)  ---------------------------------------


    TRIAL :  cpu time   20.1592: real time   20.2910
    CORREC:  cpu time    0.0071: real time    0.0073
    --------------------------------------------
      LOOP:  cpu time   20.1675: real time   20.3017

 eigenvalue-minimisations  : 27056
 total energy-change (2. order) :-0.2566396E+02  (-0.2262793E+02)
 number of electron     180.0000000 magnetization      12.0000000
 augmentation part      180.0000000 magnetization      12.0000000

 Free energy of the ion-electron system (eV)
  ---------------------------------------------------
  alpha Z        PSCENC =       532.25742704
  Ewald energy   TEWEN  =     -8601.05107233
  -Hartree energ DENC   =     -1903.73857242
  -exchange      EXHF   =         0.00000000
  -V(xc)+E(xc)   XCENC  =      -664.79942088
  PAW double counting   =      8494.55058411    -7650.81563588
  entropy T*S    EENTRO =        -0.00088190
  eigenvalues    EBANDS =      1061.10169159
  atomic energy  EATOM  =      8465.11600846
  ---------------------------------------------------
  free energy    TOTEN  =      -267.37987220 eV

  energy without entropy =     -267.37899031  energy(sigma->0) =     -267.37957824


--------------------------------------------------------------------------------------------------------




--------------------------------------- Iteration      1(   5)  ---------------------------------------


    TRIAL :  cpu time   19.8489: real time   19.9782
    CORREC:  cpu time    0.0069: real time    0.0070
    --------------------------------------------
      LOOP:  cpu time   19.8566: real time   19.9889

 eigenvalue-minimisations  : 27600
 total energy-change (2. order) :-0.2569443E+01  (-0.2439694E+01)
 number of electron     180.0000000 magnetization      12.0000000
 augmentation part      180.0000000 magnetization      12.0000000

 Free energy of the ion-electron system (eV)
  ---------------------------------------------------
  alpha Z        PSCENC =       532.25742704
  Ewald energy   TEWEN  =     -8601.05107233
  -Hartree energ DENC   =     -1903.73857242
  -exchange      EXHF   =         0.00000000
  -V(xc)+E(xc)   XCENC  =      -664.79942088
  PAW double counting   =      8494.55058411    -7650.81563588
  entropy T*S    EENTRO =         0.00032649
  eigenvalues    EBANDS =      1058.53103982
  atomic energy  EATOM  =      8465.11600846
  ---------------------------------------------------
  free energy    TOTEN  =      -269.94931559 eV

  energy without entropy =     -269.94964208  energy(sigma->0) =     -269.94942442


--------------------------------------------------------------------------------------------------------




--------------------------------------- Iteration      1(   6)  ---------------------------------------


    TRIAL :  cpu time   20.3998: real time   20.5355
    CORREC:  cpu time    0.0074: real time    0.0080
    --------------------------------------------
      LOOP:  cpu time   20.4085: real time   20.5476

 eigenvalue-minimisations  : 27400
 total energy-change (2. order) :-0.2059878E+00  (-0.2011850E+00)
 number of electron     180.0000000 magnetization      12.0000000
 augmentation part      180.0000000 magnetization      12.0000000

 Free energy of the ion-electron system (eV)
  ---------------------------------------------------
  alpha Z        PSCENC =       532.25742704
  Ewald energy   TEWEN  =     -8601.05107233
  -Hartree energ DENC   =     -1903.73857242
  -exchange      EXHF   =         0.00000000
  -V(xc)+E(xc)   XCENC  =      -664.79942088
  PAW double counting   =      8494.55058411    -7650.81563588
  entropy T*S    EENTRO =         0.00110209
  eigenvalues    EBANDS =      1058.32427644
  atomic energy  EATOM  =      8465.11600846
  ---------------------------------------------------
  free energy    TOTEN  =      -270.15530338 eV

  energy without entropy =     -270.15640546  energy(sigma->0) =     -270.15567074


--------------------------------------------------------------------------------------------------------




--------------------------------------- Iteration      1(   7)  ---------------------------------------


    TRIAL :  cpu time   20.6701: real time   20.8136
    CORREC:  cpu time    0.0074: real time    0.0075
    --------------------------------------------
      LOOP:  cpu time   20.6790: real time   20.8247

 eigenvalue-minimisations  : 28096
 total energy-change (2. order) :-0.2255111E-01  (-0.2230912E-01)
 number of electron     180.0000000 magnetization      12.0000000
 augmentation part      180.0000000 magnetization      12.0000000

 Free energy of the ion-electron system (eV)
  ---------------------------------------------------
  alpha Z        PSCENC =       532.25742704
  Ewald energy   TEWEN  =     -8601.05107233
  -Hartree energ DENC   =     -1903.73857242
  -exchange      EXHF   =         0.00000000
  -V(xc)+E(xc)   XCENC  =      -664.79942088
  PAW double counting   =      8494.55058411    -7650.81563588
  entropy T*S    EENTRO =         0.00131009
  eigenvalues    EBANDS =      1058.30151733
  atomic energy  EATOM  =      8465.11600846
  ---------------------------------------------------
  free energy    TOTEN  =      -270.17785448 eV

  energy without entropy =     -270.17916457  energy(sigma->0) =     -270.17829118


--------------------------------------------------------------------------------------------------------




--------------------------------------- Iteration      1(   8)  ---------------------------------------


    TRIAL :  cpu time   19.3488: real time   19.4865
    CORREC:  cpu time    0.0077: real time    0.0086
    CHARGE:  cpu time    0.8813: real time    0.8814
    --------------------------------------------
      LOOP:  cpu time   20.2389: real time   20.3807

 eigenvalue-minimisations  : 26864
 total energy-change (2. order) :-0.1634400E-02  (-0.1622916E-02)
 number of electron     179.9999997 magnetization       8.1185691
 augmentation part       42.4680579 magnetization       4.7641013

 Free energy of the ion-electron system (eV)
  ---------------------------------------------------
  alpha Z        PSCENC =       532.25742704
  Ewald energy   TEWEN  =     -8601.05107233
  -Hartree energ DENC   =     -1903.73857242
  -exchange      EXHF   =         0.00000000
  -V(xc)+E(xc)   XCENC  =      -664.79942088
  PAW double counting   =      8494.55058411    -7650.81563588
  entropy T*S    EENTRO =         0.00137483
  eigenvalues    EBANDS =      1058.29981819
  atomic energy  EATOM  =      8465.11600846
  ---------------------------------------------------
  free energy    TOTEN  =      -270.17948888 eV

  energy without entropy =     -270.18086371  energy(sigma->0) =     -270.17994716


--------------------------------------------------------------------------------------------------------




--------------------------------------- Iteration      1(   9)  ---------------------------------------


    POTLOK:  cpu time    0.2523: real time    0.2527
    SETDIJ:  cpu time    0.3895: real time    0.3908
    TRIAL :  cpu time    6.6381: real time    6.6746
    CORREC:  cpu time    2.7622: real time    2.7715
    CHARGE:  cpu time    0.9033: real time    0.9034
    --------------------------------------------
      LOOP:  cpu time   10.9479: real time   10.9982

 eigenvalue-minimisations  :     0
 total energy-change (2. order) : 0.2098987E+03  (-0.1434007E+03)
 number of electron     179.9999997 magnetization       8.5924256
 augmentation part       53.8854458 magnetization       5.6338022

 Free energy of the ion-electron system (eV)
  ---------------------------------------------------
  alpha Z        PSCENC =       532.25742704
  Ewald energy   TEWEN  =     -8601.05107233
  -Hartree energ DENC   =      -837.09633104
  -exchange      EXHF   =         0.00000000
  -V(xc)+E(xc)   XCENC  =      -694.73476565
  PAW double counting   =     12741.76483746   -11794.49246565
  entropy T*S    EENTRO =        -0.01592092
  eigenvalues    EBANDS =       127.95417218
  atomic energy  EATOM  =      8465.11600846
  ---------------------------------------------------
  free energy    TOTEN  =       -60.28081471 eV

  energy without entropy =      -60.26489379  energy(sigma->0) =      -60.27550773


--------------------------------------------------------------------------------------------------------




--------------------------------------- Iteration      1(  10)  ---------------------------------------


    POTLOK:  cpu time    0.2486: real time    0.2486
    SETDIJ:  cpu time    0.3213: real time    0.3213
    TRIAL :  cpu time    7.5033: real time    7.5977
    CORREC:  cpu time    2.7256: real time    2.7429
    CHARGE:  cpu time    0.8540: real time    0.8828
    --------------------------------------------
      LOOP:  cpu time   11.6552: real time   11.7965

 eigenvalue-minimisations  :     0
 total energy-change (2. order) :-0.1453735E+03  (-0.1147502E+02)
 number of electron     179.9999996 magnetization       8.5844799
 augmentation part       57.3248272 magnetization       5.8413437

 Free energy of the ion-electron system (eV)
  ---------------------------------------------------
  alpha Z        PSCENC =       532.25742704
  Ewald energy   TEWEN  =     -8601.05107233
  -Hartree energ DENC   =     -1347.80697010
  -exchange      EXHF   =         0.00000000
  -V(xc)+E(xc)   XCENC  =      -677.39801202
  PAW double counting   =     13530.18898032   -12694.26623247
  entropy T*S    EENTRO =        -0.02124450
  eigenvalues    EBANDS =       587.32143870
  atomic energy  EATOM  =      8465.11600846
  ---------------------------------------------------
  free energy    TOTEN  =      -205.65435333 eV

  energy without entropy =     -205.63310882  energy(sigma->0) =     -205.64727183


--------------------------------------------------------------------------------------------------------




--------------------------------------- Iteration      1(  11)  ---------------------------------------


    POTLOK:  cpu time    0.2482: real time    0.2482
    SETDIJ:  cpu time    0.3224: real time    0.3329
    TRIAL :  cpu time    7.2630: real time    7.2805
    CORREC:  cpu time    2.7431: real time    2.8201
    CHARGE:  cpu time    0.8796: real time    0.8800
    --------------------------------------------
      LOOP:  cpu time   11.4810: real time   11.5878

 eigenvalue-minimisations  :     0
 total energy-change (2. order) :-0.1154946E+02  (-0.7598975E+01)
 number of electron     179.9999996 magnetization       8.9167175
 augmentation part       59.0261493 magnetization       6.1998154

 Free energy of the ion-electron system (eV)
  ---------------------------------------------------
  alpha Z        PSCENC =       532.25742704
  Ewald energy   TEWEN  =     -8601.05107233
  -Hartree energ DENC   =     -1539.41516981
  -exchange      EXHF   =         0.00000000
  -V(xc)+E(xc)   XCENC  =      -670.45932723
  PAW double counting   =     14349.54049550   -13549.60237994
  entropy T*S    EENTRO =        -0.01085813
  eigenvalues    EBANDS =       796.43145027
  atomic energy  EATOM  =      8465.11600846
  ---------------------------------------------------
  free energy    TOTEN  =      -217.20381254 eV

  energy without entropy =     -217.19295441  energy(sigma->0) =     -217.20019317


--------------------------------------------------------------------------------------------------------




--------------------------------------- Iteration      1(  12)  ---------------------------------------


    POTLOK:  cpu time    0.2483: real time    0.2483
    SETDIJ:  cpu time    0.3418: real time    0.3423
    TRIAL :  cpu time    6.6611: real time    6.6635
    CORREC:  cpu time    2.7515: real time    2.7563
    CHARGE:  cpu time    0.8927: real time    0.8930
    --------------------------------------------
      LOOP:  cpu time   10.8980: real time   10.9079

 eigenvalue-minimisations  :     0
 total energy-change (2. order) :-0.7627538E+01  (-0.8017779E+01)
 number of electron     179.9999996 magnetization       8.9717873
 augmentation part       58.4923024 magnetization       6.3106009

 Free energy of the ion-electron system (eV)
  ---------------------------------------------------
  alpha Z        PSCENC =       532.25742704
  Ewald energy   TEWEN  =     -8601.05107233
  -Hartree energ DENC   =     -1678.07500188
  -exchange      EXHF   =         0.00000000
  -V(xc)+E(xc)   XCENC  =      -665.73328529
  PAW double counting   =     14495.47330168   -13703.43674324
  entropy T*S    EENTRO =        -0.00902569
  eigenvalues    EBANDS =       930.62887284
  atomic energy  EATOM  =      8465.11600846
  ---------------------------------------------------
  free energy    TOTEN  =      -224.83135086 eV

  energy without entropy =     -224.82232516  energy(sigma->0) =     -224.82834229


--------------------------------------------------------------------------------------------------------




--------------------------------------- Iteration      1(  13)  ---------------------------------------


    POTLOK:  cpu time    0.2491: real time    0.2491
    SETDIJ:  cpu time    0.3213: real time    0.3213
    TRIAL :  cpu time    6.5910: real time    6.6589
    CORREC:  cpu time    2.6912: real time    2.7402
    CHARGE:  cpu time    0.8994: real time    0.8993
    --------------------------------------------
      LOOP:  cpu time   10.7545: real time   10.8723

 eigenvalue-minimisations  :     0
 total energy-change (2. order) :-0.7992449E+01  (-0.1240734E+01)
 number of electron     179.9999997 magnetization       9.0414637
 augmentation part       57.5744124 magnetization       6.3083525

 Free energy of the ion-electron system (eV)
  ---------------------------------------------------
  alpha Z        PSCENC =       532.25742704
  Ewald energy   TEWEN  =     -8601.05107233
  -Hartree energ DENC   =     -1712.51953968
  -exchange      EXHF   =         0.00000000
  -V(xc)+E(xc)   XCENC  =      -664.87305029
  PAW double counting   =     14213.04564034   -13397.15427630
  entropy T*S    EENTRO =        -0.00634848
  eigenvalues    EBANDS =       932.36408900
  atomic energy  EATOM  =      8465.11600846
  ---------------------------------------------------
  free energy    TOTEN  =      -232.82379946 eV

  energy without entropy =     -232.81745098  energy(sigma->0) =     -232.82168330


--------------------------------------------------------------------------------------------------------




--------------------------------------- Iteration      1(  14)  ---------------------------------------


    POTLOK:  cpu time    0.2500: real time    0.2500
    SETDIJ:  cpu time    0.3186: real time    0.3185
    TRIAL :  cpu time    6.6556: real time    6.6945
    CORREC:  cpu time    2.7364: real time    2.7529
    CHARGE:  cpu time    0.8803: real time    0.8803
    --------------------------------------------
      LOOP:  cpu time   10.8452: real time   10.9026

 eigenvalue-minimisations  :     0
 total energy-change (2. order) :-0.1208980E+01  (-0.5515131E+00)
 number of electron     179.9999997 magnetization       8.9592623
 augmentation part       57.2223665 magnetization       6.2284813

 Free energy of the ion-electron system (eV)
  ---------------------------------------------------
  alpha Z        PSCENC =       532.25742704
  Ewald energy   TEWEN  =     -8601.05107233
  -Hartree energ DENC   =     -1669.12403239
  -exchange      EXHF   =         0.00000000
  -V(xc)+E(xc)   XCENC  =      -666.47082890
  PAW double counting   =     13949.74198410   -13119.75976246
  entropy T*S    EENTRO =        -0.00575608
  eigenvalues    EBANDS =       875.26384564
  atomic energy  EATOM  =      8465.11600846
  ---------------------------------------------------
  free energy    TOTEN  =      -234.03277932 eV

  energy without entropy =     -234.02702325  energy(sigma->0) =     -234.03086063


--------------------------------------------------------------------------------------------------------




--------------------------------------- Iteration      1(  15)  ---------------------------------------


    POTLOK:  cpu time    0.2478: real time    0.2478
    SETDIJ:  cpu time    0.3683: real time    0.3812
    TRIAL :  cpu time    6.5971: real time    6.6566
    CORREC:  cpu time    3.1678: real time    3.5362
    CHARGE:  cpu time    0.8787: real time    0.8869
    --------------------------------------------
      LOOP:  cpu time   11.2671: real time   11.7173

 eigenvalue-minimisations  :     0
 total energy-change (2. order) :-0.5488911E+00  (-0.8160548E+00)
 number of electron     179.9999996 magnetization       9.0254517
 augmentation part       57.5354265 magnetization       6.2453294

 Free energy of the ion-electron system (eV)
  ---------------------------------------------------
  alpha Z        PSCENC =       532.25742704
  Ewald energy   TEWEN  =     -8601.05107233
  -Hartree energ DENC   =     -1646.44835629
  -exchange      EXHF   =         0.00000000
  -V(xc)+E(xc)   XCENC  =      -667.22695129
  PAW double counting   =     13643.86457450   -12807.77681898
  entropy T*S    EENTRO =        -0.00432849
  eigenvalues    EBANDS =       846.68927454
  atomic energy  EATOM  =      8465.11600846
  ---------------------------------------------------
  free energy    TOTEN  =      -234.58167043 eV

  energy without entropy =     -234.57734194  energy(sigma->0) =     -234.58022760


--------------------------------------------------------------------------------------------------------




--------------------------------------- Iteration      1(  16)  ---------------------------------------


    POTLOK:  cpu time    0.2481: real time    0.2486
    SETDIJ:  cpu time    0.3330: real time    0.3335
    TRIAL :  cpu time    7.3311: real time    7.3859
    CORREC:  cpu time    2.7059: real time    2.7074
    CHARGE:  cpu time    0.9348: real time    0.9349
    --------------------------------------------
      LOOP:  cpu time   11.5553: real time   11.6150

 eigenvalue-minimisations  :     0
 total energy-change (2. order) :-0.8144055E+00  (-0.2116944E+00)
 number of electron     179.9999996 magnetization       8.9677182
 augmentation part       57.9358497 magnetization       6.2462965

 Free energy of the ion-electron system (eV)
  ---------------------------------------------------
  alpha Z        PSCENC =       532.25742704
  Ewald energy   TEWEN  =     -8601.05107233
  -Hartree energ DENC   =     -1649.14481499
  -exchange      EXHF   =         0.00000000
  -V(xc)+E(xc)   XCENC  =      -666.90851090
  PAW double counting   =     13132.17258719   -12296.36734640
  entropy T*S    EENTRO =        -0.00348441
  eigenvalues    EBANDS =       848.53397455
  atomic energy  EATOM  =      8465.11600846
  ---------------------------------------------------
  free energy    TOTEN  =      -235.39607589 eV

  energy without entropy =     -235.39259148  energy(sigma->0) =     -235.39491442


--------------------------------------------------------------------------------------------------------




--------------------------------------- Iteration      1(  17)  ---------------------------------------


    POTLOK:  cpu time    0.2482: real time    0.2482
    SETDIJ:  cpu time    0.3654: real time    0.3657
    TRIAL :  cpu time    6.7065: real time    6.7809
    CORREC:  cpu time    2.7495: real time    2.7510
    CHARGE:  cpu time    0.9000: real time    0.9000
    --------------------------------------------
      LOOP:  cpu time   10.9752: real time   11.0534

 eigenvalue-minimisations  :     0
 total energy-change (2. order) :-0.2120249E+00  (-0.1451134E+00)
 number of electron     179.9999996 magnetization       9.0263002
 augmentation part       58.2058277 magnetization       6.3236530

 Free energy of the ion-electron system (eV)
  ---------------------------------------------------
  alpha Z        PSCENC =       532.25742704
  Ewald energy   TEWEN  =     -8601.05107233
  -Hartree energ DENC   =     -1665.96030450
  -exchange      EXHF   =         0.00000000
  -V(xc)+E(xc)   XCENC  =      -666.17811172
  PAW double counting   =     13040.19971075   -12208.28210644
  entropy T*S    EENTRO =        -0.00355286
  eigenvalues    EBANDS =       868.29383233
  atomic energy  EATOM  =      8465.11600846
  ---------------------------------------------------
  free energy    TOTEN  =      -235.60810082 eV

  energy without entropy =     -235.60454796  energy(sigma->0) =     -235.60691653


--------------------------------------------------------------------------------------------------------




--------------------------------------- Iteration      1(  18)  ---------------------------------------


    POTLOK:  cpu time    0.2496: real time    0.2496
    SETDIJ:  cpu time    0.3360: real time    0.3364
    TRIAL :  cpu time    6.6297: real time    6.6489
    CORREC:  cpu time    2.7384: real time    2.7926
    CHARGE:  cpu time    0.8791: real time    0.8792
    --------------------------------------------
      LOOP:  cpu time   10.8349: real time   10.9088

 eigenvalue-minimisations  :     0
 total energy-change (2. order) :-0.1451137E+00  (-0.1546973E+00)
 number of electron     179.9999996 magnetization       8.9867102
 augmentation part       58.1276684 magnetization       6.3645979

 Free energy of the ion-electron system (eV)
  ---------------------------------------------------
  alpha Z        PSCENC =       532.25742704
  Ewald energy   TEWEN  =     -8601.05107233
  -Hartree energ DENC   =     -1677.29854877
  -exchange      EXHF   =         0.00000000
  -V(xc)+E(xc)   XCENC  =      -665.60674446
  PAW double counting   =     13004.05444006   -12175.15175572
  entropy T*S    EENTRO =        -0.00362931
  eigenvalues    EBANDS =       881.93058403
  atomic energy  EATOM  =      8465.11600846
  ---------------------------------------------------
  free energy    TOTEN  =      -235.75321455 eV

  energy without entropy =     -235.74958524  energy(sigma->0) =     -235.75200478


--------------------------------------------------------------------------------------------------------




--------------------------------------- Iteration      1(  19)  ---------------------------------------


    POTLOK:  cpu time    0.2485: real time    0.2485
    SETDIJ:  cpu time    0.3207: real time    0.3210
    TRIAL :  cpu time    6.6392: real time    6.7007
    CORREC:  cpu time    2.8428: real time    2.8444
    CHARGE:  cpu time    0.8595: real time    0.9229
    --------------------------------------------
      LOOP:  cpu time   10.9306: real time   11.0576

 eigenvalue-minimisations  :     0
 total energy-change (2. order) :-0.1545255E+00  (-0.5053243E-01)
 number of electron     179.9999996 magnetization       9.0162822
 augmentation part       57.9640555 magnetization       6.3951463

 Free energy of the ion-electron system (eV)
  ---------------------------------------------------
  alpha Z        PSCENC =       532.25742704
  Ewald energy   TEWEN  =     -8601.05107233
  -Hartree energ DENC   =     -1670.93514201
  -exchange      EXHF   =         0.00000000
  -V(xc)+E(xc)   XCENC  =      -665.60151422
  PAW double counting   =     12972.80900688   -12143.33286288
  entropy T*S    EENTRO =        -0.00420594
  eigenvalues    EBANDS =       874.83403835
  atomic energy  EATOM  =      8465.11600846
  ---------------------------------------------------
  free energy    TOTEN  =      -235.90774003 eV

  energy without entropy =     -235.90353409  energy(sigma->0) =     -235.90633805


--------------------------------------------------------------------------------------------------------




--------------------------------------- Iteration      1(  20)  ---------------------------------------


    POTLOK:  cpu time    0.2809: real time    0.2810
    SETDIJ:  cpu time    0.3132: real time    0.3140
    TRIAL :  cpu time    6.6190: real time    6.6522
    CORREC:  cpu time    2.7137: real time    2.7584
    CHARGE:  cpu time    0.8928: real time    0.9026
    --------------------------------------------
      LOOP:  cpu time   10.8220: real time   10.9122

 eigenvalue-minimisations  :     0
 total energy-change (2. order) :-0.5020301E-01  (-0.4236981E-01)
 number of electron     179.9999996 magnetization       9.0060378
 augmentation part       57.8136873 magnetization       6.4040978

 Free energy of the ion-electron system (eV)
  ---------------------------------------------------
  alpha Z        PSCENC =       532.25742704
  Ewald energy   TEWEN  =     -8601.05107233
  -Hartree energ DENC   =     -1662.30327640
  -exchange      EXHF   =         0.00000000
  -V(xc)+E(xc)   XCENC  =      -665.82435649
  PAW double counting   =     12961.02850049   -12129.93341505
  entropy T*S    EENTRO =        -0.00444150
  eigenvalues    EBANDS =       864.75644718
  atomic energy  EATOM  =      8465.11600846
  ---------------------------------------------------
  free energy    TOTEN  =      -235.95794305 eV

  energy without entropy =     -235.95350155  energy(sigma->0) =     -235.95646255


--------------------------------------------------------------------------------------------------------




--------------------------------------- Iteration      1(  21)  ---------------------------------------


    POTLOK:  cpu time    0.2481: real time    0.2481
    SETDIJ:  cpu time    0.3326: real time    0.3332
    TRIAL :  cpu time    7.6180: real time    7.6590
    CORREC:  cpu time    3.4429: real time    3.4958
    CHARGE:  cpu time    0.8976: real time    0.8984
    --------------------------------------------
      LOOP:  cpu time   12.5429: real time   12.6398

 eigenvalue-minimisations  :     0
 total energy-change (2. order) :-0.4235836E-01  (-0.4781736E-01)
 number of electron     179.9999996 magnetization       9.0484210
 augmentation part       57.8111267 magnetization       6.4545461

 Free energy of the ion-electron system (eV)
  ---------------------------------------------------
  alpha Z        PSCENC =       532.25742704
  Ewald energy   TEWEN  =     -8601.05107233
  -Hartree energ DENC   =     -1655.88482235
  -exchange      EXHF   =         0.00000000
  -V(xc)+E(xc)   XCENC  =      -665.96835999
  PAW double counting   =     12958.13556166   -12125.67230961
  entropy T*S    EENTRO =        -0.00565960
  eigenvalues    EBANDS =       857.07170722
  atomic energy  EATOM  =      8465.11600846
  ---------------------------------------------------
  free energy    TOTEN  =      -236.00030140 eV

  energy without entropy =     -235.99464180  energy(sigma->0) =     -235.99841487


--------------------------------------------------------------------------------------------------------




--------------------------------------- Iteration      1(  22)  ---------------------------------------


    POTLOK:  cpu time    0.2485: real time    0.2485
    SETDIJ:  cpu time    0.3196: real time    0.3197
    TRIAL :  cpu time    6.6885: real time    6.7608
    CORREC:  cpu time    2.7254: real time    2.7268
    CHARGE:  cpu time    0.9365: real time    0.9365
    --------------------------------------------
      LOOP:  cpu time   10.9222: real time   10.9961

 eigenvalue-minimisations  :     0
 total energy-change (2. order) :-0.4778151E-01  (-0.2067626E-01)
 number of electron     179.9999996 magnetization       9.0460483
 augmentation part       57.8969522 magnetization       6.4716336

 Free energy of the ion-electron system (eV)
  ---------------------------------------------------
  alpha Z        PSCENC =       532.25742704
  Ewald energy   TEWEN  =     -8601.05107233
  -Hartree energ DENC   =     -1658.21949399
  -exchange      EXHF   =         0.00000000
  -V(xc)+E(xc)   XCENC  =      -665.77399559
  PAW double counting   =     12975.85998332   -12143.81747790
  entropy T*S    EENTRO =        -0.00601105
  eigenvalues    EBANDS =       859.58619769
  atomic energy  EATOM  =      8465.11600846
  ---------------------------------------------------
  free energy    TOTEN  =      -236.04808291 eV

  energy without entropy =     -236.04207186  energy(sigma->0) =     -236.04607923


--------------------------------------------------------------------------------------------------------




--------------------------------------- Iteration      1(  23)  ---------------------------------------


    POTLOK:  cpu time    0.2703: real time    0.2703
    SETDIJ:  cpu time    0.3187: real time    0.3191
    TRIAL :  cpu time    6.6978: real time    6.7033
    CORREC:  cpu time    2.7271: real time    2.7282
    CHARGE:  cpu time    0.9048: real time    0.9107
    --------------------------------------------
      LOOP:  cpu time   10.9259: real time   10.9407

 eigenvalue-minimisations  :     0
 total energy-change (2. order) :-0.2067731E-01  (-0.1203000E-01)
 number of electron     179.9999996 magnetization       9.0760283
 augmentation part       57.9646701 magnetization       6.4992580

 Free energy of the ion-electron system (eV)
  ---------------------------------------------------
  alpha Z        PSCENC =       532.25742704
  Ewald energy   TEWEN  =     -8601.05107233
  -Hartree energ DENC   =     -1663.88938291
  -exchange      EXHF   =         0.00000000
  -V(xc)+E(xc)   XCENC  =      -665.51747482
  PAW double counting   =     12990.88663504   -12159.97398349
  entropy T*S    EENTRO =        -0.00640259
  eigenvalues    EBANDS =       866.10909385
  atomic energy  EATOM  =      8465.11600846
  ---------------------------------------------------
  free energy    TOTEN  =      -236.06876022 eV

  energy without entropy =     -236.06235763  energy(sigma->0) =     -236.06662602


--------------------------------------------------------------------------------------------------------




--------------------------------------- Iteration      1(  24)  ---------------------------------------


    POTLOK:  cpu time    0.2487: real time    0.2487
    SETDIJ:  cpu time    0.3201: real time    0.3208
    TRIAL :  cpu time    6.6035: real time    6.7060
    CORREC:  cpu time    2.7205: real time    2.7385
    CHARGE:  cpu time    0.8768: real time    0.8769
    --------------------------------------------
      LOOP:  cpu time   10.7751: real time   10.8977

 eigenvalue-minimisations  :     0
 total energy-change (2. order) :-0.1202987E-01  (-0.1374981E-01)
 number of electron     179.9999996 magnetization       9.0924235
 augmentation part       57.9623689 magnetization       6.5187323

 Free energy of the ion-electron system (eV)
  ---------------------------------------------------
  alpha Z        PSCENC =       532.25742704
  Ewald energy   TEWEN  =     -8601.05107233
  -Hartree energ DENC   =     -1667.89803961
  -exchange      EXHF   =         0.00000000
  -V(xc)+E(xc)   XCENC  =      -665.33589649
  PAW double counting   =     12996.31925901   -12166.19028096
  entropy T*S    EENTRO =        -0.00718963
  eigenvalues    EBANDS =       870.70820738
  atomic energy  EATOM  =      8465.11600846
  ---------------------------------------------------
  free energy    TOTEN  =      -236.08079009 eV

  energy without entropy =     -236.07360045  energy(sigma->0) =     -236.07839354


--------------------------------------------------------------------------------------------------------




--------------------------------------- Iteration      1(  25)  ---------------------------------------


    POTLOK:  cpu time    0.2486: real time    0.2485
    SETDIJ:  cpu time    0.3931: real time    0.3931
    TRIAL :  cpu time    6.6516: real time    6.6904
    CORREC:  cpu time    2.7597: real time    2.7737
    CHARGE:  cpu time    0.9117: real time    0.9120
    --------------------------------------------
      LOOP:  cpu time   10.9715: real time   11.0262

 eigenvalue-minimisations  :     0
 total energy-change (2. order) :-0.1375270E-01  (-0.9484776E-02)
 number of electron     179.9999996 magnetization       9.1235079
 augmentation part       57.9118489 magnetization       6.5418939

 Free energy of the ion-electron system (eV)
  ---------------------------------------------------
  alpha Z        PSCENC =       532.25742704
  Ewald energy   TEWEN  =     -8601.05107233
  -Hartree energ DENC   =     -1667.89988238
  -exchange      EXHF   =         0.00000000
  -V(xc)+E(xc)   XCENC  =      -665.28147755
  PAW double counting   =     12991.06594434   -12160.85140662
  entropy T*S    EENTRO =        -0.00732378
[...]
  8.440  14.382   0.000   0.000  -0.000   0.001   0.000  -0.001
 14.382  24.510   0.000   0.000  -0.000   0.001   0.001  -0.001
  0.000   0.000   1.996  -0.000   0.000   5.749  -0.000   0.000
  0.000   0.000  -0.000   1.995   0.000  -0.000   5.747   0.000
 -0.000  -0.000   0.000   0.000   1.996   0.000   0.000   5.749
  0.001   0.001   5.749  -0.000   0.000  16.476  -0.000   0.001
  0.000   0.001  -0.000   5.747   0.000  -0.000  16.471   0.000
 -0.001  -0.001   0.000   0.000   5.749   0.001   0.000  16.476
 total augmentation occupancy for first ion, spin component:           1
  4.350  -1.237  -0.002  -0.000   0.002   0.000  -0.000  -0.000
 -1.237   0.372   0.001  -0.002  -0.001  -0.000   0.000   0.000
 -0.002   0.001   1.382  -0.008  -0.005  -0.099   0.000   0.000
 -0.000  -0.002  -0.008   1.509   0.008   0.000  -0.102  -0.000
  0.002  -0.001  -0.005   0.008   1.382   0.000  -0.000  -0.099
  0.000  -0.000  -0.099   0.000   0.000   0.007  -0.000  -0.000
 -0.000   0.000   0.000  -0.102  -0.000  -0.000   0.007   0.000
 -0.000   0.000   0.000  -0.000  -0.099  -0.000   0.000   0.007
 total augmentation occupancy for first ion, spin component:           2
 -0.161   0.050  -0.016  -0.026   0.016   0.001   0.001  -0.001
  0.050  -0.015  -0.001  -0.003   0.001   0.000   0.000  -0.000
 -0.016  -0.001  -0.053   0.019  -0.006   0.004  -0.000  -0.000
 -0.026  -0.003   0.019  -0.119  -0.019  -0.000   0.006   0.000
  0.016   0.001  -0.006  -0.019  -0.053  -0.000   0.000   0.004
  0.001   0.000   0.004  -0.000  -0.000  -0.000  -0.000   0.000
  0.001   0.000  -0.000   0.006   0.000  -0.000  -0.000   0.000
 -0.001  -0.000  -0.000   0.000   0.004   0.000   0.000  -0.000


------------------------ aborting loop because EDIFF is reached ----------------------------------------


 


 total charge     
 
# of ion       s       p       d       tot
------------------------------------------
    1        0.406   0.422   0.000   0.828
    2        0.406   0.422   0.000   0.828
    3        0.405   0.424   0.000   0.829
    4        0.405   0.425   0.000   0.830
    5        0.405   0.428   0.000   0.833
    6        0.405   0.428   0.000   0.834
    7        0.405   0.429   0.000   0.834
    8        0.405   0.428   0.000   0.834
    9        0.405   0.428   0.000   0.833
   10        0.405   0.428   0.000   0.833
   11        0.407   0.427   0.000   0.833
   12        0.406   0.426   0.000   0.833
   13        0.406   0.425   0.000   0.830
   14        0.406   0.425   0.000   0.830
   15        0.404   0.430   0.000   0.835
   16        0.404   0.430   0.000   0.834
   17        0.405   0.428   0.000   0.833
   18        0.405   0.428   0.000   0.832
   19        0.337   0.353   5.139   5.829
   20        0.337   0.355   5.137   5.829
   21        0.332   0.356   5.137   5.826
   22        0.334   0.359   5.159   5.853
   23        0.334   0.361   5.113   5.808
   24        0.330   0.352   5.155   5.836
   25        0.339   0.359   5.135   5.834
   26        0.340   0.359   5.114   5.813
   27        0.335   0.361   5.123   5.818
   28        0.337   0.351   5.133   5.821
   29        0.330   0.358   5.141   5.828
   30        0.333   0.359   5.089   5.780
   31        0.337   0.352   5.137   5.826
   32        0.336   0.356   5.130   5.822
   33        0.340   0.357   5.091   5.788
   34        0.340   0.360   5.109   5.808
   35        0.336   0.353   5.122   5.812
   36        0.335   0.356   5.113   5.804
--------------------------------------------------
tot         13.335  14.097  92.278 119.710
 


 magnetization (x)
 
# of ion       s       p       d       tot
------------------------------------------
    1       -0.012  -0.024   0.000  -0.036
    2       -0.012  -0.024   0.000  -0.036
    3       -0.006  -0.011   0.000  -0.016
    4       -0.005  -0.011   0.000  -0.017
    5       -0.004  -0.003   0.000  -0.007
    6       -0.004  -0.004   0.000  -0.007
    7       -0.004  -0.003   0.000  -0.007
    8       -0.004  -0.003   0.000  -0.007
    9       -0.004  -0.008   0.000  -0.012
   10       -0.004  -0.008   0.000  -0.012
   11       -0.005  -0.008   0.000  -0.012
   12       -0.004  -0.008   0.000  -0.012
   13       -0.005  -0.010   0.000  -0.016
   14       -0.005  -0.010   0.000  -0.016
   15       -0.002  -0.001   0.000  -0.003
   16       -0.002  -0.001   0.000  -0.003
   17       -0.004  -0.009   0.000  -0.013
   18       -0.004  -0.008   0.000  -0.012
   19        0.028   0.012   2.400   2.441
   20        0.030   0.022   2.402   2.453
   21       -0.023  -0.034  -1.963  -2.020
   22        0.019   0.033   2.232   2.284
   23        0.015   0.034   2.376   2.425
   24       -0.030  -0.038  -1.931  -1.998
   25       -0.040  -0.017  -2.591  -2.647
   26       -0.044  -0.027  -2.550  -2.620
   27        0.045   0.037   2.247   2.329
   28        0.038   0.009   2.468   2.514
   29       -0.025  -0.034  -2.087  -2.145
   30        0.019   0.036   2.257   2.312
   31        0.028   0.010   2.256   2.293
   32        0.029   0.021   2.271   2.321
   33       -0.040  -0.018  -2.535  -2.593
   34       -0.045  -0.029  -2.561  -2.635
   35        0.027   0.011   2.400   2.438
   36        0.030   0.022   2.403   2.455
--------------------------------------------------
tot         -0.027  -0.104   9.493   9.362
 
    FORLOC:  cpu time    0.0285: real time    0.0285
    FORNL :  cpu time   10.5042: real time   10.7174
    STRESS:  cpu time   14.4725: real time   14.7938
    FORCOR:  cpu time    0.2708: real time    0.2708
    OFIELD:  cpu time    0.0016: real time    0.0016

  FORCE on cell =-STRESS in cart. coord.  units (eV):
  Direction    XX          YY          ZZ          XY          YZ          ZX
  --------------------------------------------------------------------------------------
  Alpha Z   532.25743   532.25743   532.25743
  Ewald   -2702.40749 -2702.40749 -3196.26924    -0.00000    -0.00000    -0.00000
  Hartree   718.28937   718.28937   228.40964    -0.60900    -0.00000    -0.00000
  E(xc)    -760.18787  -760.18787  -761.23360     0.23725     0.00000     0.00000
  Local     253.05769   253.05769  1254.83794     2.00864    -0.00000     0.00000
  n-local  -108.80969  -105.04336  -119.86331    -0.05079     0.06493    -0.35212
  augment   520.04312   520.04312   517.80527    -0.65909     0.00001     0.00001
  Kinetic  1551.83716  1552.76828  1546.38441    -2.48629     0.53732     0.07627
  Fock        0.00000     0.00000     0.00000     0.00000     0.00000     0.00000
  -------------------------------------------------------------------------------------
  Total       6.42845     6.42845     2.32853    -1.55701     0.00000     0.00000
  in kB      21.76226    21.76226     7.88279    -5.27097     0.00000     0.00000
  external pressure =       17.14 kB  Pullay stress =        0.00 kB


 VOLUME and BASIS-vectors are now :
 -----------------------------------------------------------------------------
  energy-cutoff  :      404.80
  volume of cell :      473.27
      direct lattice vectors                 reciprocal lattice vectors
     8.250148166  0.000000000  0.000000000     0.121209944  0.000000000  0.000000000
     0.000000000  8.250148166  0.000000000     0.000000000  0.121209944  0.000000000
     0.000000000  0.000000000  6.953274261     0.000000000  0.000000000  0.143817137

  length of vectors
     8.250148166  8.250148166  6.953274261     0.121209944  0.121209944  0.143817137


 FORCES acting on ions:
    Electron-Ion                     Ewald-Force                    Non-Local-Force
 -----------------------------------------------------------------------------------------------
   0.510E-01 -.510E-01 -.217E-01   -.239E-08 -.239E-08 0.411E-08   -.456E-01 0.456E-01 0.588E-01
   0.510E-01 -.510E-01 0.217E-01   -.239E-08 -.239E-08 0.411E-08   -.456E-01 0.456E-01 -.588E-01
   0.605E-01 -.561E-01 0.481E-02   -.239E-08 -.802E-09 0.411E-08   -.139E-01 -.201E-01 -.265E-02
   0.605E-01 -.561E-01 -.481E-02   -.239E-08 -.802E-09 0.411E-08   -.139E-01 -.201E-01 0.265E-02
   -.872E-01 0.134E+00 0.107E+00   -.239E-08 0.631E-08 0.411E-08   0.182E-01 -.357E-01 -.230E-01
   -.872E-01 0.134E+00 -.107E+00   -.239E-08 0.631E-08 0.411E-08   0.182E-01 -.357E-01 0.230E-01
   -.134E+00 0.872E-01 0.107E+00   -.802E-09 -.239E-08 0.411E-08   0.357E-01 -.182E-01 -.230E-01
   -.134E+00 0.872E-01 -.107E+00   -.802E-09 -.239E-08 0.411E-08   0.357E-01 -.182E-01 0.230E-01
   -.301E-01 0.616E-01 -.119E+00   -.802E-09 -.802E-09 0.411E-08   0.426E-01 0.930E-02 0.480E-01
   -.301E-01 0.616E-01 0.119E+00   -.802E-09 -.802E-09 0.411E-08   0.426E-01 0.930E-02 -.480E-01
   0.172E+00 -.172E+00 -.191E+00   -.802E-09 0.631E-08 0.411E-08   -.286E-01 0.286E-01 0.746E-01
   0.172E+00 -.172E+00 0.191E+00   -.802E-09 0.631E-08 0.411E-08   -.286E-01 0.286E-01 -.746E-01
   0.561E-01 -.605E-01 0.481E-02   0.631E-08 -.239E-08 0.411E-08   0.201E-01 0.139E-01 -.265E-02
   0.561E-01 -.605E-01 -.481E-02   0.631E-08 -.239E-08 0.411E-08   0.201E-01 0.139E-01 0.265E-02
   0.142E-01 -.142E-01 0.147E-01   0.631E-08 -.802E-09 0.411E-08   -.533E-01 0.533E-01 0.323E-02
   0.142E-01 -.142E-01 -.147E-01   0.631E-08 -.802E-09 0.411E-08   -.533E-01 0.533E-01 -.323E-02
   -.616E-01 0.301E-01 -.119E+00   0.631E-08 0.631E-08 0.411E-08   -.930E-02 -.426E-01 0.480E-01
   -.616E-01 0.301E-01 0.119E+00   0.631E-08 0.631E-08 0.411E-08   -.930E-02 -.426E-01 -.480E-01
   -.230E+00 -.317E+00 -.900E-09   -.169E-07 -.169E-07 -.411E-08   0.103E-01 0.456E-01 -.434E-18
   -.482E+00 0.595E+00 -.467E-08   -.169E-07 -.169E-07 -.411E-08   0.331E+00 -.361E+00 0.000E+00
   -.671E-01 -.371E+00 -.433E-08   -.169E-07 0.802E-09 -.411E-08   -.468E-01 0.373E+00 0.000E+00
   0.336E+00 -.586E+00 -.107E-08   -.169E-07 0.802E-09 -.411E-08   -.185E+00 0.380E+00 0.000E+00
   -.489E+00 0.489E+00 -.245E-08   -.169E-07 0.130E-07 -.411E-08   0.253E+00 -.253E+00 0.000E+00
   -.226E+00 0.226E+00 -.228E-08   -.169E-07 0.130E-07 -.411E-08   0.195E+00 -.195E+00 0.000E+00
   0.858E-01 -.168E+00 0.118E-08   0.802E-09 -.169E-07 -.411E-08   -.528E-01 0.101E+00 -.325E-18
   0.560E-01 0.363E+00 -.590E-08   0.802E-09 -.169E-07 -.411E-08   -.373E-01 -.374E+00 0.000E+00
   0.199E+00 -.199E+00 -.210E-08   0.802E-09 0.802E-09 -.411E-08   -.192E+00 0.192E+00 0.000E+00
   -.341E+00 0.341E+00 -.224E-08   0.802E-09 0.802E-09 -.411E-08   0.208E+00 -.208E+00 0.000E+00
   0.371E+00 0.671E-01 -.338E-09   0.802E-09 0.130E-07 -.411E-08   -.373E+00 0.468E-01 0.000E+00
   0.586E+00 -.336E+00 -.383E-08   0.802E-09 0.130E-07 -.411E-08   -.380E+00 0.185E+00 0.000E+00
   0.178E+00 -.178E+00 -.226E-08   0.130E-07 -.169E-07 -.411E-08   -.210E-01 0.210E-01 0.000E+00
   0.387E+00 -.387E+00 -.228E-08   0.130E-07 -.169E-07 -.411E-08   -.204E+00 0.204E+00 0.000E+00
   0.168E+00 -.858E-01 -.553E-08   0.130E-07 0.802E-09 -.411E-08   -.101E+00 0.528E-01 0.000E+00
   -.363E+00 -.560E-01 0.165E-08   0.130E-07 0.802E-09 -.411E-08   0.374E+00 0.373E-01 0.000E+00
   0.317E+00 0.230E+00 -.362E-08   0.130E-07 0.130E-07 -.411E-08   -.456E-01 -.103E-01 0.000E+00
   -.595E+00 0.482E+00 0.115E-09   0.130E-07 0.130E-07 -.411E-08   0.361E+00 -.331E+00 0.000E+00
 -----------------------------------------------------------------------------------------------
   -.242E-01 0.242E-01 -.772E-07   -.197E-14 0.275E-13 0.265E-14   0.242E-01 -.242E-01 -.759E-18
 
 
 POSITION                                       TOTAL-FORCE (eV/Angst)
 -----------------------------------------------------------------------------------
      0.00000      0.00000      0.00000         0.010479     -0.010479      0.031670
      0.00000      0.00000      3.47664         0.010479     -0.010479     -0.031670
      0.00000      2.75005      0.00000         0.048702     -0.073844      0.002424
      0.00000      2.75005      3.47664         0.048702     -0.073844     -0.002424
      0.00000      5.50010      0.00000        -0.069506      0.102157      0.086423
      0.00000      5.50010      3.47664        -0.069506      0.102157     -0.086423
      2.75005      0.00000      0.00000        -0.102157      0.069506      0.086423
      2.75005      0.00000      3.47664        -0.102157      0.069506     -0.086423
      2.75005      2.75005      0.00000         0.008364      0.070877     -0.074463
      2.75005      2.75005      3.47664         0.008364      0.070877      0.074463
      2.75005      5.50010      0.00000         0.145624     -0.145624     -0.122541
      2.75005      5.50010      3.47664         0.145624     -0.145624      0.122541
      5.50010      0.00000      0.00000         0.073844     -0.048702      0.002424
      5.50010      0.00000      3.47664         0.073844     -0.048702     -0.002424
      5.50010      2.75005      0.00000        -0.034570      0.034570      0.017788
      5.50010      2.75005      3.47664        -0.034570      0.034570     -0.017788
      5.50010      5.50010      0.00000        -0.070877     -0.008364     -0.074463
      5.50010      5.50010      3.47664        -0.070877     -0.008364      0.074463
      1.37502      1.37502      1.73832        -0.221452     -0.282069      0.000000
      1.37502      1.37502      5.21496        -0.156595      0.246487     -0.000000
      1.37502      4.12507      1.73832        -0.109296     -0.002737      0.000000
      1.37502      4.12507      5.21496         0.143645     -0.213068     -0.000000
      1.37502      6.87512      1.73832        -0.243665      0.243665     -0.000000
      1.37502      6.87512      5.21496        -0.036987      0.036987     -0.000000
      4.12507      1.37502      1.73832         0.032505     -0.072748     -0.000000
      4.12507      1.37502      5.21496         0.017171     -0.002995     -0.000000
      4.12507      4.12507      1.73832         0.014174     -0.014174     -0.000000
      4.12507      4.12507      5.21496        -0.136774      0.136774     -0.000000
      4.12507      6.87512      1.73832         0.002737      0.109296      0.000000
      4.12507      6.87512      5.21496         0.213068     -0.143645     -0.000000
      6.87512      1.37502      1.73832         0.161140     -0.161140     -0.000000
      6.87512      1.37502      5.21496         0.189194     -0.189194     -0.000000
      6.87512      4.12507      1.73832         0.072748     -0.032505     -0.000000
      6.87512      4.12507      5.21496         0.002995     -0.017171     -0.000000
      6.87512      6.87512      1.73832         0.282069      0.221452      0.000000
      6.87512      6.87512      5.21496        -0.246487      0.156595     -0.000000
 -----------------------------------------------------------------------------------
    total drift:                                0.000009     -0.000009     -0.000000


--------------------------------------------------------------------------------------------------------



  FREE ENERGIE OF THE ION-ELECTRON SYSTEM (eV)
  ---------------------------------------------------
  free  energy   TOTEN  =      -236.13399215 eV

  energy  without entropy=     -236.12737554  energy(sigma->0) =     -236.13178662
 


--------------------------------------------------------------------------------------------------------


    POTLOK:  cpu time    0.6040: real time    0.6040


--------------------------------------------------------------------------------------------------------


     LOOP+:  cpu time  840.3753: real time  852.4846
    4ORBIT:  cpu time    0.0000: real time    0.0000
 


 total charge     
 
# of ion       s       p       d       tot
------------------------------------------
    1        0.406   0.422   0.000   0.828
    2        0.406   0.422   0.000   0.828
    3        0.405   0.424   0.000   0.829
    4        0.405   0.425   0.000   0.830
    5        0.405   0.428   0.000   0.833
    6        0.405   0.428   0.000   0.834
    7        0.405   0.429   0.000   0.834
    8        0.405   0.428   0.000   0.834
    9        0.405   0.428   0.000   0.833
   10        0.405   0.428   0.000   0.833
   11        0.407   0.427   0.000   0.833
   12        0.406   0.426   0.000   0.833
   13        0.406   0.425   0.000   0.830
   14        0.406   0.425   0.000   0.830
   15        0.404   0.430   0.000   0.835
   16        0.404   0.430   0.000   0.834
   17        0.405   0.428   0.000   0.833
   18        0.405   0.428   0.000   0.832
   19        0.337   0.353   5.139   5.829
   20        0.337   0.355   5.137   5.829
   21        0.332   0.356   5.137   5.826
   22        0.334   0.359   5.159   5.853
   23        0.334   0.361   5.113   5.808
   24        0.330   0.352   5.155   5.836
   25        0.339   0.359   5.135   5.834
   26        0.340   0.359   5.114   5.813
   27        0.335   0.361   5.123   5.818
   28        0.337   0.351   5.133   5.821
   29        0.330   0.358   5.141   5.828
   30        0.333   0.359   5.089   5.780
   31        0.337   0.352   5.137   5.826
   32        0.336   0.356   5.130   5.822
   33        0.340   0.357   5.091   5.788
   34        0.340   0.360   5.109   5.808
   35        0.336   0.353   5.122   5.812
   36        0.335   0.356   5.113   5.804
--------------------------------------------------
tot         13.335  14.097  92.278 119.710
 


 magnetization (x)
 
# of ion       s       p       d       tot
------------------------------------------
    1       -0.012  -0.024   0.000  -0.036
    2       -0.012  -0.024   0.000  -0.036
    3       -0.006  -0.011   0.000  -0.016
    4       -0.005  -0.011   0.000  -0.017
    5       -0.004  -0.003   0.000  -0.007
    6       -0.004  -0.004   0.000  -0.007
    7       -0.004  -0.003   0.000  -0.007
    8       -0.004  -0.003   0.000  -0.007
    9       -0.004  -0.008   0.000  -0.012
   10       -0.004  -0.008   0.000  -0.012
   11       -0.005  -0.008   0.000  -0.012
   12       -0.004  -0.008   0.000  -0.012
   13       -0.005  -0.010   0.000  -0.016
   14       -0.005  -0.010   0.000  -0.016
   15       -0.002  -0.001   0.000  -0.003
   16       -0.002  -0.001   0.000  -0.003
   17       -0.004  -0.009   0.000  -0.013
   18       -0.004  -0.008   0.000  -0.012
   19        0.028   0.012   2.400   2.441
   20        0.030   0.022   2.402   2.453
   21       -0.023  -0.034  -1.963  -2.020
   22        0.019   0.033   2.232   2.284
   23        0.015   0.034   2.376   2.425
   24       -0.030  -0.038  -1.931  -1.998
   25       -0.040  -0.017  -2.591  -2.647
   26       -0.044  -0.027  -2.550  -2.620
   27        0.045   0.037   2.247   2.329
   28        0.038   0.009   2.468   2.514
   29       -0.025  -0.034  -2.087  -2.145
   30        0.019   0.036   2.257   2.312
   31        0.028   0.010   2.256   2.293
   32        0.029   0.021   2.271   2.321
   33       -0.040  -0.018  -2.535  -2.593
   34       -0.045  -0.029  -2.561  -2.635
   35        0.027   0.011   2.400   2.438
   36        0.030   0.022   2.403   2.455
--------------------------------------------------
tot         -0.027  -0.104   9.493   9.362
 

 total amount of memory used by VASP MPI-rank0   557520. kBytes
=======================================================================

   base      :      30000. kBytes
   nonl-proj :      24142. kBytes
   fftplans  :      21726. kBytes
   grid      :      14732. kBytes
   one-center:        279. kBytes
   wavefun   :     466641. kBytes
 
  
  
 General timing and accounting informations for this job:
 ========================================================
  
                  Total CPU time used (sec):      860.296
                            User time (sec):      842.832
                          System time (sec):       17.465
                         Elapsed time (sec):      874.932
  
                   Maximum memory used (kb):      691140.
                   Average memory used (kb):           0.
  
                          Minor page faults:       435205
                          Major page faults:           23
                 Voluntary context switches:         3727
