 vasp.5.4.4.18Apr17-6-g9f103f2a35 (build Dec 20 2018 12:05:58) complex          
  
 executed on             LinuxIFC date 2019.06.20  20:50:46
 running on   32 total cores
 distrk:  each k-point on    8 cores,    4 groups
 distr:  one band on NCORES_PER_BAND=   4 cores,    2 groups


--------------------------------------------------------------------------------------------------------


 INCAR:
 POTCAR:    PAW_PBE Al 04Jan2001                  
 POTCAR:    PAW_PBE Mn 06Sep2000                  

 ----------------------------------------------------------------------------- 
|                                                                             |
|           W    W    AA    RRRRR   N    N  II  N    N   GGGG   !!!           |
|           W    W   A  A   R    R  NN   N  II  NN   N  G    G  !!!           |
|           W    W  A    A  R    R  N N  N  II  N N  N  G       !!!           |
|           W WW W  AAAAAA  RRRRR   N  N N  II  N  N N  G  GGG   !            |
|           WW  WW  A    A  R   R   N   NN  II  N   NN  G    G                |
|           W    W  A    A  R    R  N    N  II  N    N   GGGG   !!!           |
|                                                                             |
|      You have enabled k-point parallelism (KPAR>1).                         |
|      This developmental code was originally  written by Paul Kent at ORNL,  |
|      and carefully double checked in Vienna.                                |
|      GW as well as linear response parallelism added by Martijn Marsman     |
|      and Georg Kresse.                                                      |
|      Carefully verify results versus KPAR=1.                                |
|      Report problems to Paul Kent and Vienna.                               |
|                                                                             |
 ----------------------------------------------------------------------------- 

 POTCAR:    PAW_PBE Al 04Jan2001                  
   VRHFIN =Al: s2p1                                                             
   LEXCH  = PE                                                                  
   EATOM  =    53.5387 eV,    3.9350 Ry                                         
                                                                                
   TITEL  = PAW_PBE Al 04Jan2001                                                
   LULTRA =        F    use ultrasoft PP ?                                      
   IUNSCR =        1    unscreen: 0-lin 1-nonlin 2-no                           
   RPACOR =    1.500    partial core radius                                     
   POMASS =   26.981; ZVAL   =    3.000    mass and valenz                      
   RCORE  =    1.900    outmost cutoff radius                                   
   RWIGS  =    2.650; RWIGS  =    1.402    wigner-seitz radius (au A)           
   ENMAX  =  240.300; ENMIN  =  180.225 eV                                      
   ICORE  =        2    local potential                                         
   LCOR   =        T    correct aug charges                                     
   LPAW   =        T    paw PP                                                  
   EAUG   =  291.052                                                            
   DEXC   =    0.000                                                            
   RMAX   =    1.939    core radius for proj-oper                               
   RAUG   =    1.300    factor for augmentation sphere                          
   RDEP   =    1.966    radius for radial grids                                 
   RDEPT  =    1.856    core radius for aug-charge                              
                                                                                
   Atomic configuration                                                         
    6 entries                                                                   
     n  l   j            E        occ.                                          
     1  0  0.50     -1511.1048   2.0000                                         
     2  0  0.50      -108.1629   2.0000                                         
     2  1  1.50       -69.6402   6.0000                                         
     3  0  0.50        -7.7528   2.0000                                         
     3  1  1.50        -2.7121   1.0000                                         
     3  2  2.50        -2.7212   0.0000                                         
   Description                                                                  
     l       E           TYP  RCUT    TYP  RCUT                                 
     0     -7.7528455     23  1.900                                             
     0     -3.3096929     23  1.900                                             
     1     -2.7120682     23  1.900                                             
     1     13.6058260     23  1.900                                             
     2     -2.7211652      7  1.900                                             
  local pseudopotential read in
  partial core-charges read in
  partial kinetic energy density read in
  atomic valenz-charges read in
  non local Contribution for L=           0  read in
    real space projection operators read in
  non local Contribution for L=           0  read in
    real space projection operators read in
  non local Contribution for L=           1  read in
    real space projection operators read in
  non local Contribution for L=           1  read in
    real space projection operators read in
    PAW grid and wavefunctions read in
 
   number of l-projection  operators is LMAX  =           4
   number of lm-projection operators is LMMAX =           8
 
 POTCAR:    PAW_PBE Mn 06Sep2000                  
   VRHFIN =Mn: d6 s1                                                            
   LEXCH  = PE                                                                  
   EATOM  =   416.7541 eV,   30.6306 Ry                                         
                                                                                
   TITEL  = PAW_PBE Mn 06Sep2000                                                
   LULTRA =        F    use ultrasoft PP ?                                      
   IUNSCR =        1    unscreen: 0-lin 1-nonlin 2-no                           
   RPACOR =    2.000    partial core radius                                     
   POMASS =   54.938; ZVAL   =    7.000    mass and valenz                      
   RCORE  =    2.300    outmost cutoff radius                                   
   RWIGS  =    2.500; RWIGS  =    1.323    wigner-seitz radius (au A)           
   ENMAX  =  269.864; ENMIN  =  202.398 eV                                      
   RCLOC  =    1.725    cutoff for local pot                                    
   LCOR   =        T    correct aug charges                                     
   LPAW   =        T    paw PP                                                  
   EAUG   =  500.711                                                            
   DEXC   =    0.000                                                            
   RMAX   =    2.343    core radius for proj-oper                               
   RAUG   =    1.300    factor for augmentation sphere                          
   RDEP   =    2.338    radius for radial grids                                 
   RDEPT  =    1.911    core radius for aug-charge                              
                                                                                
   Atomic configuration                                                         
    9 entries                                                                   
     n  l   j            E        occ.                                          
     1  0  0.50     -6424.8288   2.0000                                         
     2  0  0.50      -739.1154   2.0000                                         
     2  1  1.50      -625.3949   6.0000                                         
     3  0  0.50       -81.6100   2.0000                                         
     3  1  1.50       -50.4667   6.0000                                         
     3  2  2.50        -3.3745   6.0000                                         
     4  0  0.50        -4.1331   1.0000                                         
     4  1  0.50        -4.0817   0.0000                                         
     4  3  2.50        -1.3606   0.0000                                         
   Description                                                                  
     l       E           TYP  RCUT    TYP  RCUT                                 
     2     -3.3744664     23  2.300                                             
     2     -4.7350490     23  2.300                                             
     0     -4.1331408     23  2.300                                             
     0      7.6656614     23  2.300                                             
     1     -2.7211652     23  2.300                                             
     1     20.4087390     23  2.300                                             
  local pseudopotential read in
  partial core-charges read in
  partial kinetic energy density read in
  atomic valenz-charges read in
  non local Contribution for L=           2  read in
    real space projection operators read in
  non local Contribution for L=           2  read in
    real space projection operators read in
  non local Contribution for L=           0  read in
    real space projection operators read in
  non local Contribution for L=           0  read in
    real space projection operators read in
  non local Contribution for L=           1  read in
    real space projection operators read in
  non local Contribution for L=           1  read in
    real space projection operators read in
    PAW grid and wavefunctions read in
 
   number of l-projection  operators is LMAX  =           6
   number of lm-projection operators is LMMAX =          18
 

 ----------------------------------------------------------------------------- 
|                                                                             |
|  ADVICE TO THIS USER RUNNING 'VASP/VAMP'   (HEAR YOUR MASTER'S VOICE ...):  |
|                                                                             |
|      You have a (more or less) 'large supercell' and for larger cells       |
|      it might be more efficient to use real space projection opertators     |
|      So try LREAL= Auto  in the INCAR   file.                               |
|      Mind:          For very  accurate calculation you might also keep the  |
|      reciprocal projection scheme          (i.e. LREAL=.FALSE.)             |
|                                                                             |
 ----------------------------------------------------------------------------- 

  PAW_PBE Al 04Jan2001                  :
 energy of atom  1       EATOM=  -53.5387
 kinetic energy error for atom=    0.0005 (will be added to EATOM!!)
  PAW_PBE Mn 06Sep2000                  :
 energy of atom  2       EATOM= -416.7541
 kinetic energy error for atom=    0.0080 (will be added to EATOM!!)
 
 
 POSCAR: NewRef: 27, @ ['Mn', array([1.37502469, 
  positions in cartesian coordinates
  velocities in cartesian coordinates
  No initial velocities read in
 exchange correlation table for  LEXCH =        8
   RHO(1)=    0.500       N(1)  =     2000
   RHO(2)=  100.500       N(2)  =     4000
 


--------------------------------------------------------------------------------------------------------


 ion  position               nearest neighbor table
   1  0.000  0.000  0.000-  28 2.61  30 2.61  34 2.61  36 2.61  46 2.61  48 2.61  52 2.61  54 2.61
                             4 2.75  10 2.75   7 2.75  19 2.75
   2  0.000  0.000  0.333-  28 2.61  34 2.61  46 2.61  52 2.61  29 2.61  47 2.61  35 2.61  53 2.61
                             5 2.75  11 2.75   8 2.75  20 2.75
   3  0.000  0.000  0.667-  29 2.61  35 2.61  47 2.61  53 2.61  30 2.61  48 2.61  36 2.61  54 2.61
                             6 2.75  12 2.75   9 2.75  21 2.75
   4  0.000  0.333  0.000-  28 2.61  30 2.61  46 2.61  48 2.61  31 2.61  33 2.61  49 2.61  51 2.61
                            13 2.75   1 2.75   7 2.75  22 2.75
   5  0.000  0.333  0.333-  28 2.61  46 2.61  31 2.61  49 2.61  47 2.61  29 2.61  32 2.61  50 2.61
                            14 2.75   2 2.75   8 2.75  23 2.75
   6  0.000  0.333  0.667-  29 2.61  47 2.61  32 2.61  50 2.61  48 2.61  30 2.61  33 2.61  51 2.61
                            15 2.75   3 2.75   9 2.75  24 2.75
   7  0.000  0.667  0.000-  31 2.61  33 2.61  49 2.61  51 2.61  34 2.61  36 2.61  52 2.61  54 2.61
                             4 2.75  16 2.75   1 2.75  25 2.75
   8  0.000  0.667  0.333-  31 2.61  49 2.61  34 2.61  52 2.61  50 2.61  32 2.61  35 2.61  53 2.61
                             5 2.75  17 2.75   2 2.75  26 2.75
   9  0.000  0.667  0.667-  32 2.61  50 2.61  35 2.61  53 2.61  51 2.61  33 2.61  36 2.61  54 2.61
                             6 2.75  18 2.75   3 2.75  27 2.75
  10  0.333  0.000  0.000-  28 2.61  30 2.61  34 2.61  36 2.61  37 2.61  39 2.61  43 2.61  45 2.61
                            19 2.75   1 2.75  13 2.75  16 2.75
  11  0.333  0.000  0.333-  28 2.61  34 2.61  37 2.61  43 2.61  29 2.61  35 2.61  38 2.61  44 2.61
                            20 2.75   2 2.75  14 2.75  17 2.75
  12  0.333  0.000  0.667-  29 2.61  35 2.61  38 2.61  44 2.61  30 2.61  36 2.61  39 2.61  45 2.61
                            21 2.75   3 2.75  15 2.75  18 2.75
  13  0.333  0.333  0.000-  28 2.61  30 2.61  31 2.61  33 2.61  37 2.61  39 2.61  40 2.61  42 2.61
                             4 2.75  10 2.75  16 2.75  22 2.75
  14  0.333  0.333  0.333-  28 2.61  31 2.61  37 2.61  29 2.61  40 2.61  38 2.61  32 2.61  41 2.61
                             5 2.75  11 2.75  17 2.75  23 2.75
  15  0.333  0.333  0.667-  29 2.61  32 2.61  38 2.61  30 2.61  41 2.61  39 2.61  33 2.61  42 2.61
                             6 2.75  12 2.75  18 2.75  24 2.75
  16  0.333  0.667  0.000-  31 2.61  33 2.61  34 2.61  36 2.61  40 2.61  42 2.61  43 2.61  45 2.61
                            25 2.75   7 2.75  13 2.75  10 2.75
  17  0.333  0.667  0.333-  31 2.61  34 2.61  40 2.61  32 2.61  43 2.61  41 2.61  35 2.61  44 2.61
                            26 2.75   8 2.75  14 2.75  11 2.75
  18  0.333  0.667  0.667-  32 2.61  35 2.61  41 2.61  33 2.61  44 2.61  42 2.61  36 2.61  45 2.61
                            27 2.75   9 2.75  15 2.75  12 2.75
  19  0.667  0.000  0.000-  37 2.61  39 2.61  43 2.61  45 2.61  46 2.61  48 2.61  52 2.61  54 2.61
                            10 2.75  22 2.75   1 2.75  25 2.75
  20  0.667  0.000  0.333-  37 2.61  43 2.61  46 2.61  52 2.61  38 2.61  44 2.61  47 2.61  53 2.61
                            11 2.75  23 2.75   2 2.75  26 2.75
  21  0.667  0.000  0.667-  38 2.61  44 2.61  47 2.61  53 2.61  39 2.61  45 2.61  48 2.61  54 2.61
                            12 2.75  24 2.75   3 2.75  27 2.75
  22  0.667  0.333  0.000-  37 2.61  39 2.61  40 2.61  42 2.61  46 2.61  48 2.61  49 2.61  51 2.61
                            25 2.75  13 2.75  19 2.75   4 2.75
  23  0.667  0.333  0.333-  37 2.61  40 2.61  46 2.61  38 2.61  49 2.61  47 2.61  41 2.61  50 2.61
                            26 2.75  14 2.75  20 2.75   5 2.75
  24  0.667  0.333  0.667-  38 2.61  41 2.61  47 2.61  39 2.61  50 2.61  48 2.61  42 2.61  51 2.61
                            27 2.75  15 2.75  21 2.75   6 2.75
  25  0.667  0.667  0.000-  40 2.61  42 2.61  43 2.61  45 2.61  49 2.61  51 2.61  52 2.61  54 2.61
                            16 2.75  22 2.75  19 2.75   7 2.75
  26  0.667  0.667  0.333-  40 2.61  43 2.61  49 2.61  41 2.61  52 2.61  50 2.61  44 2.61  53 2.61
                            17 2.75  23 2.75  20 2.75   8 2.75
  27  0.667  0.667  0.667-  41 2.61  44 2.61  50 2.61  42 2.61  53 2.61  51 2.61  45 2.61  54 2.61
                            18 2.75  24 2.75  21 2.75   9 2.75
  28  0.167  0.167  0.167-  14 2.61  11 2.61   5 2.61  13 2.61   2 2.61  10 2.61   4 2.61   1 2.61
                            31 2.75  37 2.75  34 2.75  46 2.75
  29  0.167  0.167  0.500-  15 2.61  12 2.61   6 2.61  14 2.61   3 2.61  11 2.61   5 2.61   2 2.61
                            32 2.75  38 2.75  35 2.75  47 2.75
  30  0.167  0.167  0.833-  13 2.61  15 2.61  10 2.61  12 2.61   4 2.61   6 2.61   1 2.61   3 2.61
                            33 2.75  39 2.75  36 2.75  48 2.75
  31  0.167  0.500  0.167-  17 2.61  14 2.61   8 2.61  16 2.61   5 2.61  13 2.61   7 2.61   4 2.61
                            28 2.75  34 2.75  40 2.75  49 2.75
  32  0.167  0.500  0.500-  18 2.61  15 2.61   9 2.61  17 2.61   6 2.61  14 2.61   8 2.61   5 2.61
                            29 2.75  35 2.75  41 2.75  50 2.75
  33  0.167  0.500  0.833-  16 2.61  18 2.61  13 2.61  15 2.61   7 2.61   9 2.61   4 2.61   6 2.61
                            30 2.75  36 2.75  42 2.75  51 2.75
  34  0.167  0.833  0.167-  11 2.61  17 2.61   2 2.61   8 2.61  16 2.61  10 2.61   7 2.61   1 2.61
                            31 2.75  43 2.75  28 2.75  52 2.75
  35  0.167  0.833  0.500-  12 2.61  18 2.61   3 2.61   9 2.61  17 2.61  11 2.61   8 2.61   2 2.61
                            32 2.75  44 2.75  29 2.75  53 2.75
  36  0.167  0.833  0.833-  10 2.61  12 2.61  16 2.61  18 2.61   1 2.61   3 2.61   7 2.61   9 2.61
                            33 2.75  45 2.75  30 2.75  54 2.75
  37  0.500  0.167  0.167-  23 2.61  20 2.61  14 2.61  22 2.61  11 2.61  19 2.61  13 2.61  10 2.61
                            28 2.75  40 2.75  46 2.75  43 2.75
  38  0.500  0.167  0.500-  24 2.61  21 2.61  15 2.61  23 2.61  12 2.61  20 2.61  14 2.61  11 2.61
                            29 2.75  41 2.75  47 2.75  44 2.75
  39  0.500  0.167  0.833-  22 2.61  24 2.61  19 2.61  21 2.61  13 2.61  15 2.61  10 2.61  12 2.61
                            30 2.75  42 2.75  48 2.75  45 2.75
  40  0.500  0.500  0.167-  26 2.61  23 2.61  17 2.61  25 2.61  14 2.61  22 2.61  16 2.61  13 2.61
                            31 2.75  37 2.75  43 2.75  49 2.75
  41  0.500  0.500  0.500-  27 2.61  24 2.61  18 2.61  26 2.61  15 2.61  23 2.61  17 2.61  14 2.61
                            32 2.75  38 2.75  44 2.75  50 2.75
  42  0.500  0.500  0.833-  25 2.61  27 2.61  22 2.61  24 2.61  16 2.61  18 2.61  13 2.61  15 2.61
                            33 2.75  39 2.75  45 2.75  51 2.75
  43  0.500  0.833  0.167-  20 2.61  26 2.61  11 2.61  17 2.61  25 2.61  19 2.61  16 2.61  10 2.61
                            34 2.75  40 2.75  52 2.75  37 2.75
  44  0.500  0.833  0.500-  21 2.61  27 2.61  12 2.61  18 2.61  26 2.61  20 2.61  17 2.61  11 2.61
                            35 2.75  41 2.75  53 2.75  38 2.75
  45  0.500  0.833  0.833-  19 2.61  21 2.61  25 2.61  27 2.61  10 2.61  12 2.61  16 2.61  18 2.61
                            36 2.75  42 2.75  54 2.75  39 2.75
  46  0.833  0.167  0.167-   5 2.61  23 2.61  20 2.61   2 2.61  22 2.61   4 2.61  19 2.61   1 2.61
                            37 2.75  49 2.75  28 2.75  52 2.75
  47  0.833  0.167  0.500-   6 2.61  24 2.61  21 2.61   3 2.61  23 2.61   5 2.61  20 2.61   2 2.61
                            38 2.75  50 2.75  29 2.75  53 2.75
  48  0.833  0.167  0.833-   4 2.61   6 2.61  22 2.61  24 2.61  19 2.61  21 2.61   1 2.61   3 2.61
                            39 2.75  51 2.75  30 2.75  54 2.75
  49  0.833  0.500  0.167-   8 2.61  26 2.61  23 2.61   5 2.61  25 2.61   7 2.61  22 2.61   4 2.61
                            40 2.75  46 2.75  52 2.75  31 2.75
  50  0.833  0.500  0.500-   9 2.61  27 2.61  24 2.61   6 2.61  26 2.61   8 2.61  23 2.61   5 2.61
                            41 2.75  47 2.75  53 2.75  32 2.75
  51  0.833  0.500  0.833-   7 2.61   9 2.61  25 2.61  27 2.61  22 2.61  24 2.61   4 2.61   6 2.61
                            42 2.75  48 2.75  54 2.75  33 2.75
  52  0.833  0.833  0.167-   2 2.61   8 2.61  20 2.61  26 2.61  19 2.61   7 2.61  25 2.61   1 2.61
                            43 2.75  49 2.75  46 2.75  34 2.75
  53  0.833  0.833  0.500-   3 2.61   9 2.61  21 2.61  27 2.61  20 2.61   8 2.61  26 2.61   2 2.61
                            44 2.75  50 2.75  47 2.75  35 2.75
  54  0.833  0.833  0.833-   1 2.61   3 2.61   7 2.61   9 2.61  19 2.61  21 2.61  25 2.61  27 2.61
                            45 2.75  51 2.75  48 2.75  36 2.75
 
  LATTYP: Found a simple tetragonal cell.
 ALAT       =     8.2501481662
 C/A-ratio  =     1.2642089792
  
  Lattice vectors:
  
 A1 = (   8.2501481662,   0.0000000000,   0.0000000000)
 A2 = (   0.0000000000,   8.2501481662,   0.0000000000)
 A3 = (   0.0000000000,   0.0000000000,  10.4299113916)


Analysis of symmetry for initial positions (statically):
=====================================================================
 Subroutine PRICEL returns following result:
 
  LATTYP: Found a simple tetragonal cell.
 ALAT       =     2.7500493888
 C/A-ratio  =     1.2642089792
  
  Lattice vectors:
  
 A1 = (   2.7500493888,   0.0000000000,   0.0000000000)
 A2 = (   0.0000000000,   2.7500493888,   0.0000000000)
 A3 = (   0.0000000000,   0.0000000000,   3.4766371306)
 
  27 primitive cells build up your supercell.
 

 Routine SETGRP: Setting up the symmetry group for a 
 simple tetragonal supercell.


 Subroutine GETGRP returns: Found 16 space group operations
 (whereof 16 operations were pure point group operations)
 out of a pool of 16 trial point group operations.


The static configuration has the point symmetry D_4h.


Analysis of symmetry for dynamics (positions and initial velocities):
=====================================================================
 Subroutine PRICEL returns following result:
 
  LATTYP: Found a simple tetragonal cell.
 ALAT       =     2.7500493888
 C/A-ratio  =     1.2642089792
  
  Lattice vectors:
  
 A1 = (   2.7500493888,   0.0000000000,   0.0000000000)
 A2 = (   0.0000000000,   2.7500493888,   0.0000000000)
 A3 = (   0.0000000000,   0.0000000000,   3.4766371306)
 
  27 primitive cells build up your supercell.
 

 Routine SETGRP: Setting up the symmetry group for a 
 simple tetragonal supercell.


 Subroutine GETGRP returns: Found 16 space group operations
 (whereof 16 operations were pure point group operations)
 out of a pool of 16 trial point group operations.


The dynamic configuration has the point symmetry D_4h.


Analysis of structural, dynamic, and magnetic symmetry:
=====================================================================
 Subroutine PRICEL returns:
 Original cell was already a primitive cell.
 

 Routine SETGRP: Setting up the symmetry group for a 
 simple tetragonal supercell.


 Subroutine GETGRP returns: Found  2 space group operations
 (whereof  2 operations were pure point group operations)
 out of a pool of 16 trial point group operations.


The magnetic configuration has the point symmetry C_1h.


 Subroutine INISYM returns: Found  2 space group operations
 (whereof  2 operations are pure point group operations),
 and found     1 'primitive' translations

 
 
 KPOINTS: automatic KPOINTS                       

Automatic generation of k-mesh.
 generate k-points for:    5    5    4
Space group operators:
 irot       det(A)        alpha          n_x          n_y          n_z        tau_x        tau_y        tau_z
    1     1.000000     0.000001     1.000000     0.000000     0.000000     0.000000     0.000000     0.000000
    2    -1.000000   180.000000     0.707107     0.707107     0.000000     0.000000     0.000000     0.000000
 
 Subroutine IBZKPT returns following result:
 ===========================================
 
 Found     33 irreducible k-points:
 
 Following reciprocal coordinates:
            Coordinates               Weight
  0.000000  0.000000  0.000000      1.000000
  0.200000  0.000000  0.000000      4.000000
  0.400000  0.000000  0.000000      4.000000
  0.200000  0.200000  0.000000      2.000000
  0.400000  0.200000  0.000000      4.000000
 -0.400000  0.200000  0.000000      4.000000
 -0.200000  0.200000  0.000000      2.000000
  0.400000  0.400000  0.000000      2.000000
 -0.400000  0.400000  0.000000      2.000000
  0.000000  0.000000  0.250000      2.000000
  0.200000  0.000000  0.250000      4.000000
  0.400000  0.000000  0.250000      4.000000
 -0.400000  0.000000  0.250000      4.000000
 -0.200000  0.000000  0.250000      4.000000
  0.200000  0.200000  0.250000      4.000000
  0.400000  0.200000  0.250000      4.000000
 -0.400000  0.200000  0.250000      4.000000
 -0.200000  0.200000  0.250000      2.000000
  0.200000  0.400000  0.250000      4.000000
  0.400000  0.400000  0.250000      4.000000
 -0.400000  0.400000  0.250000      2.000000
  0.200000 -0.400000  0.250000      4.000000
  0.400000 -0.400000  0.250000      2.000000
  0.200000 -0.200000  0.250000      2.000000
  0.000000  0.000000  0.500000      1.000000
  0.200000  0.000000  0.500000      4.000000
  0.400000  0.000000  0.500000      4.000000
  0.200000  0.200000  0.500000      2.000000
  0.400000  0.200000  0.500000      4.000000
 -0.400000  0.200000  0.500000      4.000000
 -0.200000  0.200000  0.500000      2.000000
  0.400000  0.400000  0.500000      2.000000
 -0.400000  0.400000  0.500000      2.000000
 
 Following cartesian coordinates:
            Coordinates               Weight
  0.000000  0.000000  0.000000      1.000000
  0.024242  0.000000  0.000000      4.000000
  0.048484  0.000000  0.000000      4.000000
  0.024242  0.024242  0.000000      2.000000
  0.048484  0.024242  0.000000      4.000000
 -0.048484  0.024242  0.000000      4.000000
 -0.024242  0.024242  0.000000      2.000000
  0.048484  0.048484  0.000000      2.000000
 -0.048484  0.048484  0.000000      2.000000
  0.000000  0.000000  0.023970      2.000000
  0.024242  0.000000  0.023970      4.000000
  0.048484  0.000000  0.023970      4.000000
 -0.048484  0.000000  0.023970      4.000000
 -0.024242  0.000000  0.023970      4.000000
  0.024242  0.024242  0.023970      4.000000
  0.048484  0.024242  0.023970      4.000000
 -0.048484  0.024242  0.023970      4.000000
 -0.024242  0.024242  0.023970      2.000000
  0.024242  0.048484  0.023970      4.000000
  0.048484  0.048484  0.023970      4.000000
 -0.048484  0.048484  0.023970      2.000000
  0.024242 -0.048484  0.023970      4.000000
  0.048484 -0.048484  0.023970      2.000000
  0.024242 -0.024242  0.023970      2.000000
  0.000000  0.000000  0.047939      1.000000
  0.024242  0.000000  0.047939      4.000000
  0.048484  0.000000  0.047939      4.000000
  0.024242  0.024242  0.047939      2.000000
  0.048484  0.024242  0.047939      4.000000
 -0.048484  0.024242  0.047939      4.000000
 -0.024242  0.024242  0.047939      2.000000
  0.048484  0.048484  0.047939      2.000000
 -0.048484  0.048484  0.047939      2.000000
 


--------------------------------------------------------------------------------------------------------




 Dimension of arrays:
   k-points           NKPTS =     33   k-points in BZ     NKDIM =     33   number of bands    NBANDS=    168
   number of dos      NEDOS =    301   number of ions     NIONS =     54
   non local maximal  LDIM  =      6   non local SUM 2l+1 LMDIM =     18
   total plane-waves  NPLWV = 204120
   max r-space proj   IRMAX =      1   max aug-charges    IRDMAX=  89713
   dimension x,y,z NGX =    54 NGY =   54 NGZ =   70
   dimension x,y,z NGXF=   108 NGYF=  108 NGZF=  140
   support grid    NGXF=   216 NGYF=  216 NGZF=  280
   ions per type =              27  27
   NGX,Y,Z   is equivalent  to a cutoff of  10.88, 10.88, 11.16 a.u.
   NGXF,Y,Z  is equivalent  to a cutoff of  21.76, 21.76, 22.32 a.u.

 SYSTEM =  AlMn_pv                                 
 POSCAR =  NewRef: 27, @ ['Mn', array([1.37502469, 

 Startparameter for this run:
   NWRITE =      2    write-flag & timer
   PREC   = accura    normal or accurate (medium, high low for compatibility)
   ISTART =      0    job   : 0-new  1-cont  2-samecut
   ICHARG =      2    charge: 1-file 2-atom 10-const
   ISPIN  =      2    spin polarized calculation?
   LNONCOLLINEAR =      F non collinear calculations
   LSORBIT =      F    spin-orbit coupling
   INIWAV =      1    electr: 0-lowe 1-rand  2-diag
   LASPH  =      F    aspherical Exc in radial PAW
   METAGGA=      F    non-selfconsistent MetaGGA calc.

 Electronic Relaxation 1
   ENCUT  =  404.8 eV  29.75 Ry    5.45 a.u.  13.53 13.53 17.11*2*pi/ulx,y,z
   ENINI  =  404.8     initial cutoff
   ENAUG  =  500.7 eV  augmentation charge cutoff
   NELM   =    100;   NELMIN=  4; NELMDL= -8     # of ELM steps 
   EDIFF  = 0.1E-06   stopping-criterion for ELM
   LREAL  =      F    real-space projection
   NLSPLINE    = F    spline interpolate recip. space projectors
   LCOMPAT=      F    compatible to vasp.4.4
   GGA_COMPAT  = T    GGA compatible to vasp.4.4-vasp.4.6
   LMAXPAW     = -100 max onsite density
   LMAXMIX     =    2 max onsite mixed and CHGCAR
   VOSKOWN=      0    Vosko Wilk Nusair interpolation
   ROPT   =    0.00000   0.00000
 Ionic relaxation
   EDIFFG = 0.1E-05   stopping-criterion for IOM
   NSW    =      0    number of steps for IOM
   NBLOCK =      1;   KBLOCK =      1    inner block; outer block 
   IBRION =     -1    ionic relax: 0-MD 1-quasi-New 2-CG
   NFREE  =      0    steps in history (QN), initial steepest desc. (CG)
   ISIF   =      2    stress and relaxation
   IWAVPR =     10    prediction:  0-non 1-charg 2-wave 3-comb
   ISYM   =      2    0-nonsym 1-usesym 2-fastsym
   LCORR  =      T    Harris-Foulkes like correction to forces

   POTIM  = 0.2000    time-step for ionic-motion
   TEIN   =    0.0    initial temperature
   TEBEG  =    0.0;   TEEND  =   0.0 temperature during run
   SMASS  =  -3.00    Nose mass-parameter (am)
   estimated Nose-frequenzy (Omega)   =  0.10E-29 period in steps =****** mass=  -0.156E-26a.u.
   SCALEE = 1.0000    scale energy and forces
   NPACO  =    256;   APACO  = 16.0  distance and # of slots for P.C.
   PSTRESS=    0.0 pullay stress

  Mass of Ions in am
   POMASS =  26.98 54.94
  Ionic Valenz
   ZVAL   =   3.00  7.00
  Atomic Wigner-Seitz radii
   RWIGS  =  -1.00 -1.00
  virtual crystal weights 
   VCA    =   1.00  1.00
   NELECT =     270.0000    total number of electrons
   NUPDOWN=      -1.0000    fix difference up-down

 DOS related values:
   EMIN   =  10.00;   EMAX   =-10.00  energy-range for DOS
   EFERMI =   0.00
   ISMEAR =     1;   SIGMA  =   0.20  broadening in eV -4-tet -1-fermi 0-gaus

 Electronic relaxation 2 (details)
   IALGO  =     58    algorithm
   LDIAG  =      T    sub-space diagonalisation (order eigenvalues)
   LSUBROT=      F    optimize rotation matrix (better conditioning)
   TURBO    =      0    0=normal 1=particle mesh
   IRESTART =      0    0=no restart 2=restart with 2 vectors
   NREBOOT  =      0    no. of reboots
   NMIN     =      0    reboot dimension
   EREF     =   0.00    reference energy to select bands
   IMIX   =      4    mixing-type and parameters
     AMIX     =   0.40;   BMIX     =  1.00
     AMIX_MAG =   1.60;   BMIX_MAG =  1.00
     AMIN     =   0.10
     WC   =   100.;   INIMIX=   1;  MIXPRE=   1;  MAXMIX= -45

 Intra band minimization:
   WEIMIN = 0.0000     energy-eigenvalue tresh-hold
   EBREAK =  0.15E-09  absolut break condition
   DEPER  =   0.30     relativ break condition  

   TIME   =   0.40     timestep for ELM

  volume/ion in A,a.u.               =      13.15        88.72
  Fermi-wavevector in a.u.,A,eV,Ry     =   1.186118  2.241439 19.141722  1.406877
  Thomas-Fermi vector in A             =   2.322298
 
 Write flags
   LWAVE        =      F    write WAVECAR
   LDOWNSAMPLE  =      F    k-point downsampling of WAVECAR
   LCHARG       =      F    write CHGCAR
   LVTOT        =      F    write LOCPOT, total local potential
   LVHAR        =      F    write LOCPOT, Hartree potential only
   LELF         =      F    write electronic localiz. function (ELF)
   LORBIT       =     10    0 simple, 1 ext, 2 COOP (PROOUT), +10 PAW based schemes


 Dipole corrections
   LMONO  =      F    monopole corrections only (constant potential shift)
   LDIPOL =      F    correct potential (dipole corrections)
   IDIPOL =      0    1-x, 2-y, 3-z, 4-all directions 
   EPSILON=  1.0000000 bulk dielectric constant

 Exchange correlation treatment:
   GGA     =    --    GGA type
   LEXCH   =     8    internal setting for exchange type
   VOSKOWN=      0    Vosko Wilk Nusair interpolation
   LHFCALC =     F    Hartree Fock is set to
   LHFONE  =     F    Hartree Fock one center treatment
   AEXX    =    0.0000 exact exchange contribution

 Linear response parameters
   LEPSILON=     F    determine dielectric tensor
   LRPA    =     F    only Hartree local field effects (RPA)
   LNABLA  =     F    use nabla operator in PAW spheres
   LVEL    =     F    velocity operator in full k-point grid
   LINTERFAST=   F  fast interpolation
   KINTER  =     0    interpolate to denser k-point grid
   CSHIFT  =0.1000    complex shift for real part using Kramers Kronig
   OMEGAMAX=  -1.0    maximum frequency
   DEG_THRESHOLD= 0.2000000E-02 threshold for treating states as degnerate
   RTIME   =   -0.100 relaxation time in fs
  (WPLASMAI=    0.000 imaginary part of plasma frequency in eV, 0.658/RTIME)
   DFIELD  = 0.0000000 0.0000000 0.0000000 field for delta impulse in time
 
 Orbital magnetization related:
   ORBITALMAG=     F  switch on orbital magnetization
   LCHIMAG   =     F  perturbation theory with respect to B field
   DQ        =  0.001000  dq finite difference perturbation B field
   LLRAUG    =     F  two centre corrections for induced B field



--------------------------------------------------------------------------------------------------------


 Static calculation
 charge density and potential will be updated during run
 spin polarized calculation
 Conjugate gradient for all bands (Freysoldt, et al. PRB 79, 241103 (2009))
 preconditioned conjugated gradient                                        
 perform sub-space diagonalisation
    before iterative eigenvector-optimisation
 modified Broyden-mixing scheme, WC =      100.0
 initial mixing is a Kerker type mixing with AMIX =  0.4000 and BMIX =      1.0000
 Hartree-type preconditioning will be used
 using additional bands           33
 reciprocal scheme for non local part
 use partial core corrections
 no Harris-corrections to forces 
 use gradient corrections 
 use of overlap-Matrix (Vanderbilt PP)
 Methfessel and Paxton  Order N= 1 SIGMA  =   0.20


--------------------------------------------------------------------------------------------------------


  energy-cutoff  :      404.80
  volume of cell :      709.91
      direct lattice vectors                 reciprocal lattice vectors
     8.250148166  0.000000000  0.000000000     0.121209944  0.000000000  0.000000000
     0.000000000  8.250148166  0.000000000     0.000000000  0.121209944  0.000000000
     0.000000000  0.000000000 10.429911392     0.000000000  0.000000000  0.095878092

  length of vectors
     8.250148166  8.250148166 10.429911392     0.121209944  0.121209944  0.095878092


 
 k-points in units of 2pi/SCALE and weight: automatic KPOINTS                       
   0.00000000  0.00000000  0.00000000       0.010
   0.02424199  0.00000000  0.00000000       0.040
   0.04848398  0.00000000  0.00000000       0.040
   0.02424199  0.02424199  0.00000000       0.020
   0.04848398  0.02424199  0.00000000       0.040
  -0.04848398  0.02424199  0.00000000       0.040
  -0.02424199  0.02424199  0.00000000       0.020
   0.04848398  0.04848398  0.00000000       0.020
  -0.04848398  0.04848398  0.00000000       0.020
   0.00000000  0.00000000  0.02396952       0.020
   0.02424199  0.00000000  0.02396952       0.040
   0.04848398  0.00000000  0.02396952       0.040
  -0.04848398  0.00000000  0.02396952       0.040
  -0.02424199  0.00000000  0.02396952       0.040
   0.02424199  0.02424199  0.02396952       0.040
   0.04848398  0.02424199  0.02396952       0.040
  -0.04848398  0.02424199  0.02396952       0.040
  -0.02424199  0.02424199  0.02396952       0.020
   0.02424199  0.04848398  0.02396952       0.040
   0.04848398  0.04848398  0.02396952       0.040
  -0.04848398  0.04848398  0.02396952       0.020
   0.02424199 -0.04848398  0.02396952       0.040
   0.04848398 -0.04848398  0.02396952       0.020
   0.02424199 -0.02424199  0.02396952       0.020
   0.00000000  0.00000000  0.04793905       0.010
   0.02424199  0.00000000  0.04793905       0.040
   0.04848398  0.00000000  0.04793905       0.040
   0.02424199  0.02424199  0.04793905       0.020
   0.04848398  0.02424199  0.04793905       0.040
  -0.04848398  0.02424199  0.04793905       0.040
  -0.02424199  0.02424199  0.04793905       0.020
   0.04848398  0.04848398  0.04793905       0.020
  -0.04848398  0.04848398  0.04793905       0.020
 
 k-points in reciprocal lattice and weights: automatic KPOINTS                       
   0.00000000  0.00000000  0.00000000       0.010
   0.20000000  0.00000000  0.00000000       0.040
   0.40000000  0.00000000  0.00000000       0.040
   0.20000000  0.20000000  0.00000000       0.020
   0.40000000  0.20000000  0.00000000       0.040
  -0.40000000  0.20000000  0.00000000       0.040
  -0.20000000  0.20000000  0.00000000       0.020
   0.40000000  0.40000000  0.00000000       0.020
  -0.40000000  0.40000000  0.00000000       0.020
   0.00000000  0.00000000  0.25000000       0.020
   0.20000000  0.00000000  0.25000000       0.040
   0.40000000  0.00000000  0.25000000       0.040
  -0.40000000  0.00000000  0.25000000       0.040
  -0.20000000  0.00000000  0.25000000       0.040
   0.20000000  0.20000000  0.25000000       0.040
   0.40000000  0.20000000  0.25000000       0.040
  -0.40000000  0.20000000  0.25000000       0.040
  -0.20000000  0.20000000  0.25000000       0.020
   0.20000000  0.40000000  0.25000000       0.040
   0.40000000  0.40000000  0.25000000       0.040
  -0.40000000  0.40000000  0.25000000       0.020
   0.20000000 -0.40000000  0.25000000       0.040
   0.40000000 -0.40000000  0.25000000       0.020
   0.20000000 -0.20000000  0.25000000       0.020
   0.00000000  0.00000000  0.50000000       0.010
   0.20000000  0.00000000  0.50000000       0.040
   0.40000000  0.00000000  0.50000000       0.040
   0.20000000  0.20000000  0.50000000       0.020
   0.40000000  0.20000000  0.50000000       0.040
  -0.40000000  0.20000000  0.50000000       0.040
  -0.20000000  0.20000000  0.50000000       0.020
   0.40000000  0.40000000  0.50000000       0.020
  -0.40000000  0.40000000  0.50000000       0.020
 
 position of ions in fractional coordinates (direct lattice) 
   0.00000000  0.00000000  0.00000000
   0.00000000  0.00000000  0.33333333
   0.00000000  0.00000000  0.66666667
   0.00000000  0.33333333  0.00000000
   0.00000000  0.33333333  0.33333333
   0.00000000  0.33333333  0.66666667
   0.00000000  0.66666667  0.00000000
   0.00000000  0.66666667  0.33333333
   0.00000000  0.66666667  0.66666667
   0.33333333  0.00000000  0.00000000
   0.33333333  0.00000000  0.33333333
   0.33333333  0.00000000  0.66666667
   0.33333333  0.33333333  0.00000000
   0.33333333  0.33333333  0.33333333
   0.33333333  0.33333333  0.66666667
   0.33333333  0.66666667  0.00000000
   0.33333333  0.66666667  0.33333333
   0.33333333  0.66666667  0.66666667
   0.66666667  0.00000000  0.00000000
   0.66666667  0.00000000  0.33333333
   0.66666667  0.00000000  0.66666667
   0.66666667  0.33333333  0.00000000
   0.66666667  0.33333333  0.33333333
   0.66666667  0.33333333  0.66666667
   0.66666667  0.66666667  0.00000000
   0.66666667  0.66666667  0.33333333
   0.66666667  0.66666667  0.66666667
   0.16666667  0.16666667  0.16666667
   0.16666667  0.16666667  0.50000000
   0.16666667  0.16666667  0.83333333
   0.16666667  0.50000000  0.16666667
   0.16666667  0.50000000  0.50000000
   0.16666667  0.50000000  0.83333333
   0.16666667  0.83333333  0.16666667
   0.16666667  0.83333333  0.50000000
   0.16666667  0.83333333  0.83333333
   0.50000000  0.16666667  0.16666667
   0.50000000  0.16666667  0.50000000
   0.50000000  0.16666667  0.83333333
   0.50000000  0.50000000  0.16666667
   0.50000000  0.50000000  0.50000000
   0.50000000  0.50000000  0.83333333
   0.50000000  0.83333333  0.16666667
   0.50000000  0.83333333  0.50000000
   0.50000000  0.83333333  0.83333333
   0.83333333  0.16666667  0.16666667
   0.83333333  0.16666667  0.50000000
   0.83333333  0.16666667  0.83333333
   0.83333333  0.50000000  0.16666667
   0.83333333  0.50000000  0.50000000
   0.83333333  0.50000000  0.83333333
   0.83333333  0.83333333  0.16666667
   0.83333333  0.83333333  0.50000000
   0.83333333  0.83333333  0.83333333
 
 position of ions in cartesian coordinates  (Angst):
   0.00000000  0.00000000  0.00000000
   0.00000000  0.00000000  3.47663713
   0.00000000  0.00000000  6.95327426
   0.00000000  2.75004939  0.00000000
   0.00000000  2.75004939  3.47663713
   0.00000000  2.75004939  6.95327426
   0.00000000  5.50009878  0.00000000
   0.00000000  5.50009878  3.47663713
   0.00000000  5.50009878  6.95327426
   2.75004939  0.00000000  0.00000000
   2.75004939  0.00000000  3.47663713
   2.75004939  0.00000000  6.95327426
   2.75004939  2.75004939  0.00000000
   2.75004939  2.75004939  3.47663713
   2.75004939  2.75004939  6.95327426
   2.75004939  5.50009878  0.00000000
   2.75004939  5.50009878  3.47663713
   2.75004939  5.50009878  6.95327426
   5.50009878  0.00000000  0.00000000
   5.50009878  0.00000000  3.47663713
   5.50009878  0.00000000  6.95327426
   5.50009878  2.75004939  0.00000000
   5.50009878  2.75004939  3.47663713
   5.50009878  2.75004939  6.95327426
   5.50009878  5.50009878  0.00000000
   5.50009878  5.50009878  3.47663713
   5.50009878  5.50009878  6.95327426
   1.37502469  1.37502469  1.73831857
   1.37502469  1.37502469  5.21495570
   1.37502469  1.37502469  8.69159283
   1.37502469  4.12507408  1.73831857
   1.37502469  4.12507408  5.21495570
   1.37502469  4.12507408  8.69159283
   1.37502469  6.87512347  1.73831857
   1.37502469  6.87512347  5.21495570
   1.37502469  6.87512347  8.69159283
   4.12507408  1.37502469  1.73831857
   4.12507408  1.37502469  5.21495570
   4.12507408  1.37502469  8.69159283
   4.12507408  4.12507408  1.73831857
   4.12507408  4.12507408  5.21495570
   4.12507408  4.12507408  8.69159283
   4.12507408  6.87512347  1.73831857
   4.12507408  6.87512347  5.21495570
   4.12507408  6.87512347  8.69159283
   6.87512347  1.37502469  1.73831857
   6.87512347  1.37502469  5.21495570
   6.87512347  1.37502469  8.69159283
   6.87512347  4.12507408  1.73831857
   6.87512347  4.12507408  5.21495570
   6.87512347  4.12507408  8.69159283
   6.87512347  6.87512347  1.73831857
   6.87512347  6.87512347  5.21495570
   6.87512347  6.87512347  8.69159283
 


--------------------------------------------------------------------------------------------------------


 k-point  1 :   0.0000 0.0000 0.0000  plane waves:   13099
 k-point  2 :   0.2000 0.0000 0.0000  plane waves:   13101
 k-point  3 :   0.4000 0.0000 0.0000  plane waves:   13111
 k-point  4 :   0.2000 0.2000 0.0000  plane waves:   13137
 k-point  5 :   0.4000 0.2000 0.0000  plane waves:   13119
 k-point  6 :  -0.4000 0.2000 0.0000  plane waves:   13119
 k-point  7 :  -0.2000 0.2000 0.0000  plane waves:   13137
 k-point  8 :   0.4000 0.4000 0.0000  plane waves:   13129
 k-point  9 :  -0.4000 0.4000 0.0000  plane waves:   13129
 k-point 10 :   0.0000 0.0000 0.2500  plane waves:   13134
 k-point 11 :   0.2000 0.0000 0.2500  plane waves:   13149
 k-point 12 :   0.4000 0.0000 0.2500  plane waves:   13119
 k-point 13 :  -0.4000 0.0000 0.2500  plane waves:   13119
 k-point 14 :  -0.2000 0.0000 0.2500  plane waves:   13149
 k-point 15 :   0.2000 0.2000 0.2500  plane waves:   13145
 k-point 16 :   0.4000 0.2000 0.2500  plane waves:   13134
 k-point 17 :  -0.4000 0.2000 0.2500  plane waves:   13134
 k-point 18 :  -0.2000 0.2000 0.2500  plane waves:   13145
 k-point 19 :   0.2000 0.4000 0.2500  plane waves:   13134
 k-point 20 :   0.4000 0.4000 0.2500  plane waves:   13108
 k-point 21 :  -0.4000 0.4000 0.2500  plane waves:   13108
 k-point 22 :   0.2000-0.4000 0.2500  plane waves:   13134
 k-point 23 :   0.4000-0.4000 0.2500  plane waves:   13108
 k-point 24 :   0.2000-0.2000 0.2500  plane waves:   13145
 k-point 25 :   0.0000 0.0000 0.5000  plane waves:   13186
 k-point 26 :   0.2000 0.0000 0.5000  plane waves:   13124
 k-point 27 :   0.4000 0.0000 0.5000  plane waves:   13152
 k-point 28 :   0.2000 0.2000 0.5000  plane waves:   13136
 k-point 29 :   0.4000 0.2000 0.5000  plane waves:   13128
 k-point 30 :  -0.4000 0.2000 0.5000  plane waves:   13128
 k-point 31 :  -0.2000 0.2000 0.5000  plane waves:   13136
 k-point 32 :   0.4000 0.4000 0.5000  plane waves:   13112
 k-point 33 :  -0.4000 0.4000 0.5000  plane waves:   13112

 maximum and minimum number of plane-waves per node :      3313     3260

 maximum number of plane-waves:     13186
 maximum index in each direction: 
   IXMAX=   13   IYMAX=   13   IZMAX=   17
   IXMIN=  -13   IYMIN=  -13   IZMIN=  -17


 parallel 3D FFT for wavefunctions:
    minimum data exchange during FFTs selected (reduces bandwidth)
 parallel 3D FFT for charge:
    minimum data exchange during FFTs selected (reduces bandwidth)


 total amount of memory used by VASP MPI-rank0  1042002. kBytes
=======================================================================

   base      :      30000. kBytes
   nonl-proj :      34131. kBytes
   fftplans  :      31580. kBytes
   grid      :      21385. kBytes
   one-center:        435. kBytes
   wavefun   :     924471. kBytes
 
     INWAV:  cpu time    0.0000: real time    0.0000
 Broyden mixing: mesh for mixing (old mesh)
   NGX = 27   NGY = 27   NGZ = 35
  (NGX  =108   NGY  =108   NGZ  =140)
  gives a total of  25515 points

 initial charge density was supplied:
 charge density of overlapping atoms calculated
 number of electron     270.0000000 magnetization       9.0000000
 keeping initial charge density in first step


--------------------------------------------------------------------------------------------------------


 Maximum index for augmentation-charges        10967 (set IRDMAX)


--------------------------------------------------------------------------------------------------------


 First call to EWALD:  gamma=   0.199
 Maximum number of real-space cells 3x 3x 2
 Maximum number of reciprocal cells 3x 3x 3

    FEWALD:  cpu time    0.0329: real time    0.0329


--------------------------------------- Iteration      1(   1)  ---------------------------------------


    POTLOK:  cpu time    0.3954: real time    0.3962
    SETDIJ:  cpu time    0.4678: real time    0.4826
    TRIAL :  cpu time   38.0091: real time   39.1533
    CORREC:  cpu time    0.0068: real time    0.0078
    --------------------------------------------
      LOOP:  cpu time   39.1928: real time   40.3613

 eigenvalue-minimisations  : 22176
 total energy-change (2. order) : 0.2050487E+04  (-0.8800016E+04)
 number of electron     270.0000000 magnetization       9.0000000
 augmentation part      270.0000000 magnetization       9.0000000

 Free energy of the ion-electron system (eV)
  ---------------------------------------------------
  alpha Z        PSCENC =       798.38614055
  Ewald energy   TEWEN  =    -12901.57693327
  -Hartree energ DENC   =     -2855.60785864
  -exchange      EXHF   =         0.00000000
  -V(xc)+E(xc)   XCENC  =      -996.15249890
  PAW double counting   =     12741.82587617   -11476.22345381
  entropy T*S    EENTRO =         0.00101227
  eigenvalues    EBANDS =      4042.16106906
  atomic energy  EATOM  =     12697.67401269
  ---------------------------------------------------
  free energy    TOTEN  =      2050.48736610 eV

  energy without entropy =     2050.48635384  energy(sigma->0) =     2050.48702868


--------------------------------------------------------------------------------------------------------




--------------------------------------- Iteration      1(   2)  ---------------------------------------


    TRIAL :  cpu time   38.6029: real time   38.9063
    CORREC:  cpu time    0.0082: real time    0.0091
    --------------------------------------------
      LOOP:  cpu time   38.6162: real time   38.9207

 eigenvalue-minimisations  : 22176
 total energy-change (2. order) :-0.2128479E+04  (-0.2079780E+04)
 number of electron     270.0000000 magnetization       9.0000000
 augmentation part      270.0000000 magnetization       9.0000000

 Free energy of the ion-electron system (eV)
  ---------------------------------------------------
  alpha Z        PSCENC =       798.38614055
  Ewald energy   TEWEN  =    -12901.57693327
  -Hartree energ DENC   =     -2855.60785864
  -exchange      EXHF   =         0.00000000
  -V(xc)+E(xc)   XCENC  =      -996.15249890
  PAW double counting   =     12741.82587617   -11476.22345381
  entropy T*S    EENTRO =        -0.00910457
  eigenvalues    EBANDS =      1913.69225448
  atomic energy  EATOM  =     12697.67401269
  ---------------------------------------------------
  free energy    TOTEN  =       -77.99156532 eV

  energy without entropy =      -77.98246075  energy(sigma->0) =      -77.98853046


--------------------------------------------------------------------------------------------------------




--------------------------------------- Iteration      1(   3)  ---------------------------------------


    TRIAL :  cpu time   52.8663: real time   53.2951
    CORREC:  cpu time    0.0097: real time    0.0106
    --------------------------------------------
      LOOP:  cpu time   52.8785: real time   53.3101

 eigenvalue-minimisations  : 33360
 total energy-change (2. order) :-0.2731421E+03  (-0.2440675E+03)
 number of electron     270.0000000 magnetization       9.0000000
 augmentation part      270.0000000 magnetization       9.0000000

 Free energy of the ion-electron system (eV)
  ---------------------------------------------------
  alpha Z        PSCENC =       798.38614055
  Ewald energy   TEWEN  =    -12901.57693327
  -Hartree energ DENC   =     -2855.60785864
  -exchange      EXHF   =         0.00000000
  -V(xc)+E(xc)   XCENC  =      -996.15249890
  PAW double counting   =     12741.82587617   -11476.22345381
  entropy T*S    EENTRO =         0.00686739
  eigenvalues    EBANDS =      1640.53416769
  atomic energy  EATOM  =     12697.67401269
  ---------------------------------------------------
  free energy    TOTEN  =      -351.13368014 eV

  energy without entropy =     -351.14054753  energy(sigma->0) =     -351.13596927


--------------------------------------------------------------------------------------------------------




--------------------------------------- Iteration      1(   4)  ---------------------------------------


    TRIAL :  cpu time   56.2442: real time   56.7219
    CORREC:  cpu time    0.0100: real time    0.0101
    --------------------------------------------
      LOOP:  cpu time   56.2557: real time   56.7356

 eigenvalue-minimisations  : 36080
 total energy-change (2. order) :-0.4722383E+02  (-0.4184643E+02)
 number of electron     270.0000000 magnetization       9.0000000
 augmentation part      270.0000000 magnetization       9.0000000

 Free energy of the ion-electron system (eV)
  ---------------------------------------------------
  alpha Z        PSCENC =       798.38614055
  Ewald energy   TEWEN  =    -12901.57693327
  -Hartree energ DENC   =     -2855.60785864
  -exchange      EXHF   =         0.00000000
  -V(xc)+E(xc)   XCENC  =      -996.15249890
  PAW double counting   =     12741.82587617   -11476.22345381
  entropy T*S    EENTRO =         0.04960914
  eigenvalues    EBANDS =      1593.26759788
  atomic energy  EATOM  =     12697.67401269
  ---------------------------------------------------
  free energy    TOTEN  =      -398.35750821 eV

  energy without entropy =     -398.40711735  energy(sigma->0) =     -398.37404459


--------------------------------------------------------------------------------------------------------




--------------------------------------- Iteration      1(   5)  ---------------------------------------


    TRIAL :  cpu time   57.1716: real time   58.2850
    CORREC:  cpu time    0.0104: real time    0.0113
    --------------------------------------------
      LOOP:  cpu time   57.1841: real time   58.3005

 eigenvalue-minimisations  : 37256
 total energy-change (2. order) :-0.5412408E+01  (-0.5180449E+01)
 number of electron     270.0000000 magnetization       9.0000000
 augmentation part      270.0000000 magnetization       9.0000000

 Free energy of the ion-electron system (eV)
  ---------------------------------------------------
  alpha Z        PSCENC =       798.38614055
  Ewald energy   TEWEN  =    -12901.57693327
  -Hartree energ DENC   =     -2855.60785864
  -exchange      EXHF   =         0.00000000
  -V(xc)+E(xc)   XCENC  =      -996.15249890
  PAW double counting   =     12741.82587617   -11476.22345381
  entropy T*S    EENTRO =         0.05715913
  eigenvalues    EBANDS =      1587.84763950
  atomic energy  EATOM  =     12697.67401269
  ---------------------------------------------------
  free energy    TOTEN  =      -403.76991659 eV

  energy without entropy =     -403.82707572  energy(sigma->0) =     -403.78896963


--------------------------------------------------------------------------------------------------------




--------------------------------------- Iteration      1(   6)  ---------------------------------------


    TRIAL :  cpu time   57.4703: real time   57.9348
    CORREC:  cpu time    0.0105: real time    0.0113
    --------------------------------------------
      LOOP:  cpu time   57.4830: real time   57.9501

 eigenvalue-minimisations  : 36936
 total energy-change (2. order) :-0.4189585E+00  (-0.4095428E+00)
 number of electron     270.0000000 magnetization       9.0000000
 augmentation part      270.0000000 magnetization       9.0000000

 Free energy of the ion-electron system (eV)
  ---------------------------------------------------
  alpha Z        PSCENC =       798.38614055
  Ewald energy   TEWEN  =    -12901.57693327
  -Hartree energ DENC   =     -2855.60785864
  -exchange      EXHF   =         0.00000000
  -V(xc)+E(xc)   XCENC  =      -996.15249890
  PAW double counting   =     12741.82587617   -11476.22345381
  entropy T*S    EENTRO =         0.05994888
  eigenvalues    EBANDS =      1587.42589125
  atomic energy  EATOM  =     12697.67401269
  ---------------------------------------------------
  free energy    TOTEN  =      -404.18887510 eV

  energy without entropy =     -404.24882398  energy(sigma->0) =     -404.20885806


--------------------------------------------------------------------------------------------------------




--------------------------------------- Iteration      1(   7)  ---------------------------------------


    TRIAL :  cpu time   58.3288: real time   58.8066
    CORREC:  cpu time    0.0107: real time    0.0115
    --------------------------------------------
      LOOP:  cpu time   58.3427: real time   58.8220

 eigenvalue-minimisations  : 37704
 total energy-change (2. order) :-0.4408646E-01  (-0.4356310E-01)
 number of electron     270.0000000 magnetization       9.0000000
 augmentation part      270.0000000 magnetization       9.0000000

 Free energy of the ion-electron system (eV)
  ---------------------------------------------------
  alpha Z        PSCENC =       798.38614055
  Ewald energy   TEWEN  =    -12901.57693327
  -Hartree energ DENC   =     -2855.60785864
  -exchange      EXHF   =         0.00000000
  -V(xc)+E(xc)   XCENC  =      -996.15249890
  PAW double counting   =     12741.82587617   -11476.22345381
  entropy T*S    EENTRO =         0.06071174
  eigenvalues    EBANDS =      1587.38104193
  atomic energy  EATOM  =     12697.67401269
  ---------------------------------------------------
  free energy    TOTEN  =      -404.23296156 eV

  energy without entropy =     -404.29367330  energy(sigma->0) =     -404.25319881


--------------------------------------------------------------------------------------------------------




--------------------------------------- Iteration      1(   8)  ---------------------------------------


    TRIAL :  cpu time   55.7293: real time   56.1980
    CORREC:  cpu time    0.0105: real time    0.0114
    CHARGE:  cpu time    1.7664: real time    2.4328
    --------------------------------------------
      LOOP:  cpu time   57.5249: real time   58.6615

 eigenvalue-minimisations  : 36152
 total energy-change (2. order) :-0.3856376E-02  (-0.3824455E-02)
 number of electron     269.9999995 magnetization       6.2113686
 augmentation part       64.1588201 magnetization       3.6139042

 Free energy of the ion-electron system (eV)
  ---------------------------------------------------
  alpha Z        PSCENC =       798.38614055
  Ewald energy   TEWEN  =    -12901.57693327
  -Hartree energ DENC   =     -2855.60785864
  -exchange      EXHF   =         0.00000000
  -V(xc)+E(xc)   XCENC  =      -996.15249890
  PAW double counting   =     12741.82587617   -11476.22345381
  entropy T*S    EENTRO =         0.06092877
  eigenvalues    EBANDS =      1587.37696852
  atomic energy  EATOM  =     12697.67401269
  ---------------------------------------------------
  free energy    TOTEN  =      -404.23681794 eV

  energy without entropy =     -404.29774671  energy(sigma->0) =     -404.25712753


--------------------------------------------------------------------------------------------------------




--------------------------------------- Iteration      1(   9)  ---------------------------------------


    POTLOK:  cpu time    0.4214: real time    0.4213
    SETDIJ:  cpu time    0.4792: real time    0.4792
    TRIAL :  cpu time   19.2314: real time   19.4443
    CORREC:  cpu time    5.8234: real time    5.8639
    CHARGE:  cpu time    1.7859: real time    1.8105
    --------------------------------------------
      LOOP:  cpu time   27.7440: real time   28.0237

 eigenvalue-minimisations  :     0
 total energy-change (2. order) : 0.3012815E+03  (-0.2168820E+03)
 number of electron     269.9999993 magnetization       6.4738555
 augmentation part       82.3004658 magnetization       4.2988326

 Free energy of the ion-electron system (eV)
  ---------------------------------------------------
  alpha Z        PSCENC =       798.38614055
  Ewald energy   TEWEN  =    -12901.57693327
  -Hartree energ DENC   =     -1271.44707921
  -exchange      EXHF   =         0.00000000
  -V(xc)+E(xc)   XCENC  =     -1041.71249696
  PAW double counting   =     19163.99973989   -17744.29533887
  entropy T*S    EENTRO =         0.02595852
  eigenvalues    EBANDS =       195.95569101
  atomic energy  EATOM  =     12697.67401269
  ---------------------------------------------------
  free energy    TOTEN  =      -102.95533539 eV

  energy without entropy =     -102.98129391  energy(sigma->0) =     -102.96398823


--------------------------------------------------------------------------------------------------------




--------------------------------------- Iteration      1(  10)  ---------------------------------------


    POTLOK:  cpu time    0.3926: real time    0.3925
    SETDIJ:  cpu time    0.4706: real time    0.4707
    TRIAL :  cpu time   19.1674: real time   19.2914
    CORREC:  cpu time    6.5768: real time    6.6080
    CHARGE:  cpu time    1.7786: real time    1.7907
    --------------------------------------------
      LOOP:  cpu time   28.3917: real time   28.5606

 eigenvalue-minimisations  :     0
 total energy-change (2. order) :-0.2135963E+03  (-0.1276196E+02)
 number of electron     269.9999993 magnetization       6.6045574
 augmentation part       86.0712107 magnetization       4.4623261

 Free energy of the ion-electron system (eV)
  ---------------------------------------------------
  alpha Z        PSCENC =       798.38614055
  Ewald energy   TEWEN  =    -12901.57693327
  -Hartree energ DENC   =     -2097.50369437
  -exchange      EXHF   =         0.00000000
  -V(xc)+E(xc)   XCENC  =     -1013.01490010
  PAW double counting   =     20591.97575877   -19351.26941787
  entropy T*S    EENTRO =         0.02100400
  eigenvalues    EBANDS =       958.75142058
  atomic energy  EATOM  =     12697.67401269
  ---------------------------------------------------
  free energy    TOTEN  =      -316.55165451 eV

  energy without entropy =     -316.57265851  energy(sigma->0) =     -316.55865584


--------------------------------------------------------------------------------------------------------




--------------------------------------- Iteration      1(  11)  ---------------------------------------


    POTLOK:  cpu time    0.3920: real time    0.3920
    SETDIJ:  cpu time    0.4790: real time    0.4790
    TRIAL :  cpu time   19.9671: real time   20.1983
    CORREC:  cpu time    5.7624: real time    5.7731
    CHARGE:  cpu time    1.7617: real time    1.8104
    --------------------------------------------
      LOOP:  cpu time   28.3682: real time   28.6615

 eigenvalue-minimisations  :     0
 total energy-change (2. order) :-0.1203605E+02  (-0.1063694E+02)
 number of electron     269.9999993 magnetization       6.6359500
 augmentation part       88.8293487 magnetization       4.6052437

 Free energy of the ion-electron system (eV)
  ---------------------------------------------------
  alpha Z        PSCENC =       798.38614055
  Ewald energy   TEWEN  =    -12901.57693327
  -Hartree energ DENC   =     -2316.66769670
  -exchange      EXHF   =         0.00000000
  -V(xc)+E(xc)   XCENC  =     -1004.87288174
  PAW double counting   =     21472.48514256   -20269.86713775
  entropy T*S    EENTRO =         0.01771090
  eigenvalues    EBANDS =      1195.83064392
  atomic energy  EATOM  =     12697.67401269
  ---------------------------------------------------
  free energy    TOTEN  =      -328.58770575 eV

  energy without entropy =     -328.60541665  energy(sigma->0) =     -328.59360938


--------------------------------------------------------------------------------------------------------




--------------------------------------- Iteration      1(  12)  ---------------------------------------


    POTLOK:  cpu time    0.4253: real time    0.4253
    SETDIJ:  cpu time    0.4535: real time    0.4536
    TRIAL :  cpu time   19.2051: real time   19.3764
    CORREC:  cpu time    6.3437: real time    6.3456
    CHARGE:  cpu time    1.7681: real time    1.7909
    --------------------------------------------
      LOOP:  cpu time   28.2004: real time   28.3979

 eigenvalue-minimisations  :     0
 total energy-change (2. order) :-0.1076015E+02  (-0.1351250E+02)
 number of electron     269.9999993 magnetization       6.8085374
 augmentation part       86.7777894 magnetization       4.7240080

 Free energy of the ion-electron system (eV)
  ---------------------------------------------------
  alpha Z        PSCENC =       798.38614055
  Ewald energy   TEWEN  =    -12901.57693327
  -Hartree energ DENC   =     -2525.71833628
  -exchange      EXHF   =         0.00000000
  -V(xc)+E(xc)   XCENC  =      -997.59425561
  PAW double counting   =     21854.49225180   -20668.83490572
  entropy T*S    EENTRO =        -0.00677808
  eigenvalues    EBANDS =      1403.80646260
  atomic energy  EATOM  =     12697.67401269
  ---------------------------------------------------
  free energy    TOTEN  =      -339.34785234 eV

  energy without entropy =     -339.34107426  energy(sigma->0) =     -339.34559298


--------------------------------------------------------------------------------------------------------




--------------------------------------- Iteration      1(  13)  ---------------------------------------


    POTLOK:  cpu time    0.3923: real time    0.3924
    SETDIJ:  cpu time    0.4772: real time    0.4776
    TRIAL :  cpu time   19.9251: real time   20.1500
    CORREC:  cpu time    5.8183: real time    5.8571
    CHARGE:  cpu time    1.7571: real time    1.7715
    --------------------------------------------
      LOOP:  cpu time   28.3712: real time   28.6509

 eigenvalue-minimisations  :     0
 total energy-change (2. order) :-0.1339506E+02  (-0.9100554E+00)
 number of electron     269.9999993 magnetization       6.9174164
 augmentation part       86.1792772 magnetization       4.7243667

 Free energy of the ion-electron system (eV)
  ---------------------------------------------------
  alpha Z        PSCENC =       798.38614055
  Ewald energy   TEWEN  =    -12901.57693327
  -Hartree energ DENC   =     -2516.69299697
  -exchange      EXHF   =         0.00000000
  -V(xc)+E(xc)   XCENC  =      -998.89547517
  PAW double counting   =     21251.16447161   -20013.81043392
  entropy T*S    EENTRO =        -0.01095971
  eigenvalues    EBANDS =      1331.01508441
  atomic energy  EATOM  =     12697.67401269
  ---------------------------------------------------
  free energy    TOTEN  =      -352.74290816 eV

  energy without entropy =     -352.73194845  energy(sigma->0) =     -352.73925492


--------------------------------------------------------------------------------------------------------




--------------------------------------- Iteration      1(  14)  ---------------------------------------


    POTLOK:  cpu time    0.3920: real time    0.3922
    SETDIJ:  cpu time    0.4633: real time    0.4633
    TRIAL :  cpu time   19.2562: real time   19.4708
    CORREC:  cpu time    5.7779: real time    5.8008
    CHARGE:  cpu time    2.0856: real time    2.0856
    --------------------------------------------
      LOOP:  cpu time   27.9810: real time   28.2197

 eigenvalue-minimisations  :     0
 total energy-change (2. order) :-0.9019337E+00  (-0.1090242E+01)
 number of electron     269.9999993 magnetization       6.8921647
 augmentation part       85.9316684 magnetization       4.6791754

 Free energy of the ion-electron system (eV)
  ---------------------------------------------------
  alpha Z        PSCENC =       798.38614055
  Ewald energy   TEWEN  =    -12901.57693327
  -Hartree energ DENC   =     -2483.78101323
  -exchange      EXHF   =         0.00000000
  -V(xc)+E(xc)   XCENC  =     -1000.12895974
  PAW double counting   =     20851.06571733   -19603.61898740
  entropy T*S    EENTRO =        -0.01196532
  eigenvalues    EBANDS =      1288.34614097
  atomic energy  EATOM  =     12697.67401269
  ---------------------------------------------------
  free energy    TOTEN  =      -353.64484182 eV

  energy without entropy =     -353.63287650  energy(sigma->0) =     -353.64085338


--------------------------------------------------------------------------------------------------------




--------------------------------------- Iteration      1(  15)  ---------------------------------------


    POTLOK:  cpu time    0.3919: real time    0.3924
    SETDIJ:  cpu time    0.5156: real time    0.5187
    TRIAL :  cpu time   19.9327: real time   20.1820
    CORREC:  cpu time    5.8093: real time    5.8993
    CHARGE:  cpu time    1.7677: real time    1.7677
    --------------------------------------------
      LOOP:  cpu time   29.1597: real time   29.5058

 eigenvalue-minimisations  :     0
 total energy-change (2. order) :-0.1085084E+01  (-0.6482758E+00)
 number of electron     269.9999992 magnetization       6.8910554
 augmentation part       86.5882515 magnetization       4.6932349

 Free energy of the ion-electron system (eV)
  ---------------------------------------------------
  alpha Z        PSCENC =       798.38614055
  Ewald energy   TEWEN  =    -12901.57693327
  -Hartree energ DENC   =     -2460.20504723
  -exchange      EXHF   =         0.00000000
  -V(xc)+E(xc)   XCENC  =     -1001.00259710
  PAW double counting   =     20147.72284451   -18892.22495526
  entropy T*S    EENTRO =        -0.01491975
  eigenvalues    EBANDS =      1256.50857477
  atomic energy  EATOM  =     12697.67401269
  ---------------------------------------------------
  free energy    TOTEN  =      -354.72992568 eV

  energy without entropy =     -354.71500593  energy(sigma->0) =     -354.72495243


--------------------------------------------------------------------------------------------------------




--------------------------------------- Iteration      1(  16)  ---------------------------------------


    POTLOK:  cpu time    0.3919: real time    0.3919
    SETDIJ:  cpu time    0.4947: real time    0.4947
    TRIAL :  cpu time   19.2575: real time   19.5040
    CORREC:  cpu time    5.8357: real time    5.8535
    CHARGE:  cpu time    1.7705: real time    1.7704
    --------------------------------------------
      LOOP:  cpu time   27.7581: real time   28.0241

 eigenvalue-minimisations  :     0
 total energy-change (2. order) :-0.6512915E+00  (-0.2603836E+00)
 number of electron     269.9999992 magnetization       6.9575340
 augmentation part       87.1314717 magnetization       4.7345686

 Free energy of the ion-electron system (eV)
  ---------------------------------------------------
  alpha Z        PSCENC =       798.38614055
  Ewald energy   TEWEN  =    -12901.57693327
  -Hartree energ DENC   =     -2485.07128282
  -exchange      EXHF   =         0.00000000
  -V(xc)+E(xc)   XCENC  =     -1000.03502184
  PAW double counting   =     19766.64217115   -18515.42123708
  entropy T*S    EENTRO =        -0.01573350
  eigenvalues    EBANDS =      1284.03585315
  atomic energy  EATOM  =     12697.67401269
  ---------------------------------------------------
  free energy    TOTEN  =      -355.38121722 eV

  energy without entropy =     -355.36548372  energy(sigma->0) =     -355.37597272


--------------------------------------------------------------------------------------------------------




--------------------------------------- Iteration      1(  17)  ---------------------------------------


    POTLOK:  cpu time    0.3923: real time    0.3923
    SETDIJ:  cpu time    0.4592: real time    0.4592
    TRIAL :  cpu time   19.9406: real time   20.1228
    CORREC:  cpu time    5.8057: real time    5.9310
    CHARGE:  cpu time    1.7699: real time    1.7962
    --------------------------------------------
      LOOP:  cpu time   28.3956: real time   28.7307

 eigenvalue-minimisations  :     0
 total energy-change (2. order) :-0.2609474E+00  (-0.2697669E+00)
 number of electron     269.9999992 magnetization       6.9449024
 augmentation part       87.2508454 magnetization       4.7803600

 Free energy of the ion-electron system (eV)
  ---------------------------------------------------
  alpha Z        PSCENC =       798.38614055
  Ewald energy   TEWEN  =    -12901.57693327
  -Hartree energ DENC   =     -2509.31840292
  -exchange      EXHF   =         0.00000000
  -V(xc)+E(xc)   XCENC  =      -999.03612542
  PAW double counting   =     19646.67939311   -18400.51164978
  entropy T*S    EENTRO =        -0.01728813
  eigenvalues    EBANDS =      1312.07713389
  atomic energy  EATOM  =     12697.67401269
  ---------------------------------------------------
  free energy    TOTEN  =      -355.64216464 eV

  energy without entropy =     -355.62487651  energy(sigma->0) =     -355.63640193


--------------------------------------------------------------------------------------------------------




--------------------------------------- Iteration      1(  18)  ---------------------------------------


    POTLOK:  cpu time    0.3942: real time    0.4008
    SETDIJ:  cpu time    0.4540: real time    0.4540
    TRIAL :  cpu time   19.1530: real time   19.3200
    CORREC:  cpu time    5.8368: real time    5.8932
    CHARGE:  cpu time    1.7583: real time    1.7582
    --------------------------------------------
      LOOP:  cpu time   27.6016: real time   27.8330

 eigenvalue-minimisations  :     0
 total energy-change (2. order) :-0.2697467E+00  (-0.1435998E+00)
 number of electron     269.9999992 magnetization       6.9720845
 augmentation part       87.0606754 magnetization       4.8111135

 Free energy of the ion-electron system (eV)
  ---------------------------------------------------
  alpha Z        PSCENC =       798.38614055
  Ewald energy   TEWEN  =    -12901.57693327
  -Hartree energ DENC   =     -2511.84840864
  -exchange      EXHF   =         0.00000000
  -V(xc)+E(xc)   XCENC  =      -998.62433866
  PAW double counting   =     19539.80575871   -18294.55230054
  entropy T*S    EENTRO =        -0.01781457
  eigenvalues    EBANDS =      1314.84144599
  atomic energy  EATOM  =     12697.67401269
  ---------------------------------------------------
  free energy    TOTEN  =      -355.91191130 eV

  energy without entropy =     -355.89409674  energy(sigma->0) =     -355.90597312


--------------------------------------------------------------------------------------------------------




--------------------------------------- Iteration      1(  19)  ---------------------------------------


    POTLOK:  cpu time    0.3863: real time    0.4040
    SETDIJ:  cpu time    0.4556: real time    0.4556
    TRIAL :  cpu time   19.9663: real time   20.0677
    CORREC:  cpu time    5.8056: real time    5.9075
    CHARGE:  cpu time    1.6749: real time    1.8149
    --------------------------------------------
      LOOP:  cpu time   28.2978: real time   28.6596

 eigenvalue-minimisations  :     0
 total energy-change (2. order) :-0.1429850E+00  (-0.5482161E-01)
 number of electron     269.9999992 magnetization       6.9894597
 augmentation part       86.9030512 magnetization       4.8292139

 Free energy of the ion-electron system (eV)
  ---------------------------------------------------
  alpha Z        PSCENC =       798.38614055
  Ewald energy   TEWEN  =    -12901.57693327
  -Hartree energ DENC   =     -2500.69229791
  -exchange      EXHF   =         0.00000000
  -V(xc)+E(xc)   XCENC  =      -998.81338448
  PAW double counting   =     19486.99537310   -18239.61045504
  entropy T*S    EENTRO =        -0.01790473
  eigenvalues    EBANDS =      1301.60046265
  atomic energy  EATOM  =     12697.67401269
  ---------------------------------------------------
  free energy    TOTEN  =      -356.05489629 eV

  energy without entropy =     -356.03699156  energy(sigma->0) =     -356.04892805


--------------------------------------------------------------------------------------------------------




--------------------------------------- Iteration      1(  20)  ---------------------------------------


    POTLOK:  cpu time    0.3924: real time    0.3924
    SETDIJ:  cpu time    0.4685: real time    0.4686
    TRIAL :  cpu time   19.2614: real time   19.3957
    CORREC:  cpu time    5.7632: real time    5.9065
    CHARGE:  cpu time    1.7474: real time    1.7622
    --------------------------------------------
      LOOP:  cpu time   27.6343: real time   27.9278

 eigenvalue-minimisations  :     0
 total energy-change (2. order) :-0.5471568E-01  (-0.7190302E-01)
 number of electron     269.9999992 magnetization       6.9970863
 augmentation part       86.7924531 magnetization       4.8500135

 Free energy of the ion-electron system (eV)
  ---------------------------------------------------
  alpha Z        PSCENC =       798.38614055
  Ewald energy   TEWEN  =    -12901.57693327
  -Hartree energ DENC   =     -2493.58072759
  -exchange      EXHF   =         0.00000000
  -V(xc)+E(xc)   XCENC  =      -998.98345749
  PAW double counting   =     19469.79645934   -18220.87490521
  entropy T*S    EENTRO =        -0.01892926
  eigenvalues    EBANDS =      1293.06770374
  atomic energy  EATOM  =     12697.67401269
  ---------------------------------------------------
  free energy    TOTEN  =      -356.10961196 eV

  energy without entropy =     -356.09068270  energy(sigma->0) =     -356.10330221


--------------------------------------------------------------------------------------------------------




--------------------------------------- Iteration      1(  21)  ---------------------------------------


    POTLOK:  cpu time    0.3934: real time    0.3933
    SETDIJ:  cpu time    0.5195: real time    0.5196
    TRIAL :  cpu time   19.8979: real time   19.9837
    CORREC:  cpu time    5.8165: real time    5.9056
    CHARGE:  cpu time    1.7695: real time    1.7855
    --------------------------------------------
      LOOP:  cpu time   28.4263: real time   28.6183

 eigenvalue-minimisations  :     0
 total energy-change (2. order) :-0.7181661E-01  (-0.5211637E-01)
 number of electron     269.9999992 magnetization       7.0119479
 augmentation part       86.9134583 magnetization       4.8701261

 Free energy of the ion-electron system (eV)
  ---------------------------------------------------
  alpha Z        PSCENC =       798.38614055
  Ewald energy   TEWEN  =    -12901.57693327
  -Hartree energ DENC   =     -2490.48184382
  -exchange      EXHF   =         0.00000000
  -V(xc)+E(xc)   XCENC  =      -998.97402220
  PAW double counting   =     19464.53226198   -18214.89613517
  entropy T*S    EENTRO =        -0.01935237
  eigenvalues    EBANDS =      1289.17401994
  atomic energy  EATOM  =     12697.67401269
  ---------------------------------------------------
  free energy    TOTEN  =      -356.18142857 eV

  energy without entropy =     -356.16207620  energy(sigma->0) =     -356.17497778


--------------------------------------------------------------------------------------------------------




--------------------------------------- Iteration      1(  22)  ---------------------------------------


    POTLOK:  cpu time    0.3909: real time    0.3936
    SETDIJ:  cpu time    0.4545: real time    0.4546
    TRIAL :  cpu time   19.2477: real time   19.4808
    CORREC:  cpu time    5.7545: real time    5.8157
    CHARGE:  cpu time    1.7907: real time    1.8313
    --------------------------------------------
      LOOP:  cpu time   27.6396: real time   27.9782

 eigenvalue-minimisations  :     0
 total energy-change (2. order) :-0.5209004E-01  (-0.2109165E-01)
 number of electron     269.9999992 magnetization       7.0397239
 augmentation part       86.9854345 magnetization       4.8921436

 Free energy of the ion-electron system (eV)
  ---------------------------------------------------
  alpha Z        PSCENC =       798.38614055
  Ewald energy   TEWEN  =    -12901.57693327
  -Hartree energ DENC   =     -2499.34131287
  -exchange      EXHF   =         0.00000000
  -V(xc)+E(xc)   XCENC  =      -998.56886708
  PAW double counting   =     19483.34518611   -18235.48847378
  entropy T*S    EENTRO =        -0.01948025
  eigenvalues    EBANDS =      1299.35608142
  atomic energy  EATOM  =     12697.67401269
  ---------------------------------------------------
  free energy    TOTEN  =      -356.23351861 eV

  energy without entropy =     -356.21403836  energy(sigma->0) =     -356.22702519


--------------------------------------------------------------------------------------------------------




--------------------------------------- Iteration      1(  23)  ---------------------------------------


    POTLOK:  cpu time    0.4225: real time    0.4225
    SETDIJ:  cpu time    0.4505: real time    0.4505
    TRIAL :  cpu time   19.2020: real time   19.2854
    CORREC:  cpu time    6.3994: real time    6.4254
    CHARGE:  cpu time    1.7615: real time    1.8581
    --------------------------------------------
      LOOP:  cpu time   28.2391: real time   28.4461

 eigenvalue-minimisations  :     0
 total energy-change (2. order) :-0.2109602E-01  (-0.1936748E-01)
 number of electron     269.9999992 magnetization       7.0430129
 augmentation part       86.9454296 magnetization       4.8989386

 Free energy of the ion-electron system (eV)
  ---------------------------------------------------
  alpha Z        PSCENC =       798.38614055
  Ewald energy   TEWEN  =    -12901.57693327
  -Hartree energ DENC   =     -2504.01173310
[...]
   45       -0.014  -0.017  -2.284  -2.315
   46        0.014   0.018   2.251   2.283
   47       -0.018  -0.011  -2.458  -2.487
   48       -0.017  -0.019  -2.332  -2.368
   49        0.012   0.022   2.230   2.264
   50       -0.027  -0.023  -2.346  -2.396
   51       -0.019  -0.015  -2.367  -2.401
   52        0.020   0.017   2.393   2.430
   53        0.025   0.026   2.217   2.268
   54       -0.013  -0.020  -2.258  -2.291
--------------------------------------------------
tot         -0.011  -0.032   7.126   7.083
 
    FORLOC:  cpu time    0.0583: real time    0.0583
    FORNL :  cpu time   29.9065: real time   30.1360
    STRESS:  cpu time   39.9725: real time   40.4666
    FORCOR:  cpu time    0.4390: real time    0.4391
    OFIELD:  cpu time    0.0023: real time    0.0023

  FORCE on cell =-STRESS in cart. coord.  units (eV):
  Direction    XX          YY          ZZ          XY          YZ          ZX
  --------------------------------------------------------------------------------------
  Alpha Z   798.38614   798.38614   798.38614
  Ewald   -4053.61603 -4053.61603 -4794.40593    -0.00000    -0.00000    -0.00000
  Hartree  1084.16353  1084.16353   332.94931    -0.16357    -0.05475     0.05475
  E(xc)   -1141.45781 -1141.45781 -1139.69719     0.06226     0.01427    -0.01427
  Local     368.87152   368.87152  1904.87848     0.59721     0.18028    -0.18028
  n-local  -171.57682  -169.18975  -176.38108    -0.08038    -0.06098    -0.07309
  augment   784.47041   784.47041   767.62611    -0.15783    -0.04384     0.04384
  Kinetic  2330.56150  2340.72239  2308.91773    -0.35935    -0.86217    -0.72323
  Fock        0.00000     0.00000     0.00000     0.00000     0.00000     0.00000
  -------------------------------------------------------------------------------------
  Total       6.07641     6.07641     2.27357    -0.09602     0.03337    -0.03337
  in kB      13.71367    13.71367     5.13115    -0.21671     0.07531    -0.07531
  external pressure =       10.85 kB  Pullay stress =        0.00 kB


 VOLUME and BASIS-vectors are now :
 -----------------------------------------------------------------------------
  energy-cutoff  :      404.80
  volume of cell :      709.91
      direct lattice vectors                 reciprocal lattice vectors
     8.250148166  0.000000000  0.000000000     0.121209944  0.000000000  0.000000000
     0.000000000  8.250148166  0.000000000     0.000000000  0.121209944  0.000000000
     0.000000000  0.000000000 10.429911392     0.000000000  0.000000000  0.095878092

  length of vectors
     8.250148166  8.250148166 10.429911392     0.121209944  0.121209944  0.095878092


 FORCES acting on ions:
    Electron-Ion                     Ewald-Force                    Non-Local-Force
 -----------------------------------------------------------------------------------------------
   0.420E-02 -.420E-02 -.783E-01   -.239E-08 -.239E-08 -.210E-08   -.484E-02 0.484E-02 0.272E-01
   0.454E-01 -.454E-01 -.343E-01   -.239E-08 -.239E-08 0.171E-08   0.312E-01 -.312E-01 0.118E-01
   0.109E+00 -.109E+00 0.106E+00   -.239E-08 -.239E-08 0.861E-08   -.577E-01 0.577E-01 -.329E-01
   0.627E-03 -.711E-02 0.200E-01   -.239E-08 -.802E-09 -.210E-08   -.578E-02 0.163E-02 -.168E-01
   -.710E-01 0.149E-02 0.303E-02   -.239E-08 -.802E-09 0.171E-08   0.729E-01 0.504E-03 -.396E-01
   0.466E-01 -.872E-02 0.469E-01   -.239E-08 -.802E-09 0.861E-08   -.125E+00 0.493E-02 0.179E-02
   0.182E-02 0.199E-01 -.241E-01   -.239E-08 0.631E-08 -.210E-08   -.824E-02 -.127E-01 0.186E-01
   0.183E-01 0.501E-01 -.835E-01   -.239E-08 0.631E-08 0.171E-08   0.214E-01 0.317E-01 0.474E-01
   0.771E-01 0.116E+00 0.132E+00   -.239E-08 0.631E-08 0.861E-08   -.672E-01 -.596E-01 -.734E-01
   -.199E-01 -.182E-02 -.241E-01   -.802E-09 -.239E-08 -.210E-08   0.127E-01 0.824E-02 0.186E-01
   -.501E-01 -.183E-01 -.835E-01   -.802E-09 -.239E-08 0.171E-08   -.317E-01 -.214E-01 0.474E-01
   -.116E+00 -.771E-01 0.132E+00   -.803E-09 -.239E-08 0.861E-08   0.596E-01 0.672E-01 -.734E-01
   -.180E-02 -.208E-01 -.929E-01   -.802E-09 -.802E-09 -.210E-08   0.629E-02 0.204E-02 0.330E-01
   -.396E-01 0.303E-01 -.394E-01   -.802E-09 -.802E-09 0.171E-08   -.395E-01 0.304E-01 0.164E-01
   -.110E+00 0.944E-01 0.938E-01   -.803E-09 -.802E-09 0.861E-08   0.533E-01 -.799E-01 -.221E-01
   -.114E-01 0.114E-01 -.137E+00   -.802E-09 0.631E-08 -.210E-08   0.298E-02 -.298E-02 0.696E-01
   0.180E-01 -.180E-01 -.360E-01   -.802E-09 0.631E-08 0.171E-08   0.464E-02 -.464E-02 0.873E-01
   0.218E-01 -.218E-01 0.304E-01   -.803E-09 0.631E-08 0.861E-08   -.121E-01 0.121E-01 -.553E-01
   0.711E-02 -.627E-03 0.200E-01   0.631E-08 -.239E-08 -.210E-08   -.163E-02 0.578E-02 -.168E-01
   -.149E-02 0.710E-01 0.303E-02   0.631E-08 -.239E-08 0.171E-08   -.504E-03 -.729E-01 -.396E-01
   0.872E-02 -.466E-01 0.469E-01   0.631E-08 -.239E-08 0.861E-08   -.493E-02 0.125E+00 0.179E-02
   0.706E-03 -.706E-03 0.121E+00   0.631E-08 -.802E-09 -.210E-08   -.498E-03 0.498E-03 -.643E-01
   0.115E+00 -.115E+00 -.570E-01   0.631E-08 -.802E-09 0.171E-08   -.337E-01 0.337E-01 -.772E-02
   0.598E-01 -.598E-01 0.615E-01   0.631E-08 -.802E-09 0.861E-08   0.691E-01 -.691E-01 -.246E-01
   0.208E-01 0.180E-02 -.929E-01   0.631E-08 0.631E-08 -.210E-08   -.204E-02 -.629E-02 0.330E-01
   -.303E-01 0.396E-01 -.394E-01   0.631E-08 0.631E-08 0.171E-08   -.304E-01 0.395E-01 0.164E-01
   -.944E-01 0.110E+00 0.938E-01   0.631E-08 0.631E-08 0.861E-08   0.799E-01 -.533E-01 -.221E-01
   0.139E-02 -.460E-02 0.673E-01   -.169E-07 -.169E-07 -.180E-07   0.360E-01 -.226E-01 -.113E+00
   -.606E-01 -.795E-01 -.162E+00   -.169E-07 -.169E-07 -.170E-08   0.922E-01 0.540E-01 0.142E+00
   0.126E-02 0.784E-02 0.252E+00   -.169E-07 -.169E-07 0.115E-07   -.487E-02 0.202E-01 -.305E+00
   -.348E-01 -.320E-01 0.424E-01   -.169E-07 0.802E-09 -.180E-07   -.226E-01 0.789E-01 -.138E+00
   0.399E+00 -.146E-01 -.915E-01   -.169E-07 0.802E-09 -.170E-08   -.271E+00 0.467E-01 0.134E+00
   0.476E-01 -.362E-01 0.776E-01   -.169E-07 0.802E-09 0.115E-07   0.750E-02 -.148E-01 -.600E-01
   -.392E-01 0.392E-01 -.497E-01   -.169E-07 0.130E-07 -.180E-07   0.576E-01 -.576E-01 -.133E-01
   -.988E-01 0.988E-01 -.528E-02   -.169E-07 0.130E-07 -.170E-08   0.111E+00 -.111E+00 0.102E+00
   -.303E-01 0.303E-01 -.229E-01   -.169E-07 0.130E-07 0.115E-07   0.110E-01 -.110E-01 0.138E-01
   0.926E-01 -.401E-02 -.245E+00   0.802E-09 -.169E-07 -.180E-07   -.528E-01 -.148E-01 0.248E+00
   0.623E+00 -.303E-01 0.253E+00   0.802E-09 -.169E-07 -.170E-08   -.311E+00 0.387E-01 -.244E+00
   -.805E-02 -.357E-02 -.179E+00   0.802E-09 -.169E-07 0.115E-07   -.290E-01 0.359E-01 0.285E+00
   0.220E-01 -.220E-01 0.116E+00   0.802E-09 0.802E-09 -.180E-07   0.186E-03 -.186E-03 -.184E+00
   -.499E+00 0.499E+00 -.161E+00   0.802E-09 0.802E-09 -.170E-08   0.258E+00 -.258E+00 0.157E+00
   -.532E-01 0.532E-01 0.218E+00   0.802E-09 0.802E-09 0.115E-07   0.153E-01 -.153E-01 -.202E+00
   0.320E-01 0.348E-01 0.424E-01   0.802E-09 0.130E-07 -.180E-07   -.789E-01 0.226E-01 -.138E+00
   0.146E-01 -.399E+00 -.915E-01   0.802E-09 0.130E-07 -.170E-08   -.467E-01 0.271E+00 0.134E+00
   0.362E-01 -.476E-01 0.776E-01   0.802E-09 0.130E-07 0.115E-07   0.148E-01 -.750E-02 -.600E-01
   -.812E-01 0.812E-01 -.608E-01   0.130E-07 -.169E-07 -.180E-07   0.196E-01 -.196E-01 -.244E-01
   -.499E+00 0.499E+00 0.183E+00   0.130E-07 -.169E-07 -.170E-08   0.278E+00 -.278E+00 -.179E+00
   0.116E-01 -.116E-01 -.154E+00   0.130E-07 -.169E-07 0.115E-07   0.376E-01 -.376E-01 0.296E+00
   0.401E-02 -.926E-01 -.245E+00   0.130E-07 0.802E-09 -.180E-07   0.148E-01 0.528E-01 0.248E+00
   0.303E-01 -.623E+00 0.253E+00   0.130E-07 0.802E-09 -.170E-08   -.387E-01 0.311E+00 -.244E+00
   0.357E-02 0.805E-02 -.179E+00   0.130E-07 0.802E-09 0.115E-07   -.359E-01 0.290E-01 0.285E+00
   0.460E-02 -.139E-02 0.673E-01   0.130E-07 0.130E-07 -.180E-07   0.226E-01 -.360E-01 -.113E+00
   0.795E-01 0.606E-01 -.162E+00   0.130E-07 0.130E-07 -.170E-08   -.540E-01 -.922E-01 0.142E+00
   -.784E-02 -.126E-02 0.252E+00   0.130E-07 0.130E-07 0.115E-07   -.202E-01 0.487E-02 -.305E+00
 -----------------------------------------------------------------------------------------------
   0.120E-02 -.120E-02 0.196E+00   -.614E-13 -.142E-13 0.128E-13   -.120E-02 0.120E-02 -.196E+00
 
 
 POSITION                                       TOTAL-FORCE (eV/Angst)
 -----------------------------------------------------------------------------------
      0.00000      0.00000      0.00000        -0.000237      0.000237     -0.054280
      0.00000      0.00000      3.47664         0.073586     -0.073586     -0.022219
      0.00000      0.00000      6.95327         0.056475     -0.056475      0.075367
      0.00000      2.75005      0.00000        -0.004697     -0.005664      0.004915
      0.00000      2.75005      3.47664        -0.004839      0.002014     -0.031421
      0.00000      2.75005      6.95327        -0.068178     -0.004275      0.047077
      0.00000      5.50010      0.00000        -0.005799      0.008371     -0.006835
      0.00000      5.50010      3.47664         0.037430      0.078780     -0.038835
      0.00000      5.50010      6.95327         0.015395      0.061865      0.064381
      2.75005      0.00000      0.00000        -0.008371      0.005799     -0.006835
      2.75005      0.00000      3.47664        -0.078780     -0.037430     -0.038835
      2.75005      0.00000      6.95327        -0.061865     -0.015395      0.064381
      2.75005      2.75005      0.00000         0.003948     -0.019069     -0.063760
      2.75005      2.75005      3.47664        -0.075342      0.058111     -0.022875
      2.75005      2.75005      6.95327        -0.060835      0.021281      0.072183
      2.75005      5.50010      0.00000        -0.008651      0.008651     -0.074774
      2.75005      5.50010      3.47664         0.022588     -0.022588      0.044290
      2.75005      5.50010      6.95327         0.011151     -0.011151     -0.021009
      5.50010      0.00000      0.00000         0.005664      0.004697      0.004915
      5.50010      0.00000      3.47664        -0.002014      0.004839     -0.031421
      5.50010      0.00000      6.95327         0.004275      0.068178      0.047077
      5.50010      2.75005      0.00000         0.000271     -0.000271      0.063354
      5.50010      2.75005      3.47664         0.085001     -0.085001     -0.062379
      5.50010      2.75005      6.95327         0.123133     -0.123133      0.037637
      5.50010      5.50010      0.00000         0.019069     -0.003948     -0.063760
      5.50010      5.50010      3.47664        -0.058111      0.075342     -0.022875
      5.50010      5.50010      6.95327        -0.021281      0.060835      0.072183
      1.37502      1.37502      1.73832         0.037616     -0.027251     -0.039222
      1.37502      1.37502      5.21496         0.031269     -0.027383     -0.024357
      1.37502      1.37502      8.69159        -0.002913      0.028159     -0.046846
      1.37502      4.12507      1.73832        -0.055303      0.046401     -0.087388
      1.37502      4.12507      5.21496         0.134209      0.033407      0.036032
      1.37502      4.12507      8.69159         0.054494     -0.051394      0.017104
      1.37502      6.87512      1.73832         0.017996     -0.017996     -0.055662
      1.37502      6.87512      5.21496         0.011401     -0.011401      0.088833
      1.37502      6.87512      8.69159        -0.019595      0.019595     -0.012400
      4.12507      1.37502      1.73832         0.039423     -0.018633     -0.000963
      4.12507      1.37502      5.21496         0.323106      0.009853      0.013966
      4.12507      1.37502      8.69159        -0.035033      0.032561      0.097669
      4.12507      4.12507      1.73832         0.019965     -0.019965     -0.058288
      4.12507      4.12507      5.21496        -0.249383      0.249383     -0.007889
      4.12507      4.12507      8.69159        -0.037287      0.037287      0.018306
      4.12507      6.87512      1.73832        -0.046401      0.055303     -0.087388
      4.12507      6.87512      5.21496        -0.033407     -0.134209      0.036032
      4.12507      6.87512      8.69159         0.051394     -0.054494      0.017104
      6.87512      1.37502      1.73832        -0.061268      0.061268     -0.082691
      6.87512      1.37502      5.21496        -0.228743      0.228743      0.009998
      6.87512      1.37502      8.69159         0.046781     -0.046781      0.132157
      6.87512      4.12507      1.73832         0.018633     -0.039423     -0.000963
      6.87512      4.12507      5.21496        -0.009853     -0.323106      0.013966
      6.87512      4.12507      8.69159        -0.032561      0.035033      0.097669
      6.87512      6.87512      1.73832         0.027251     -0.037616     -0.039222
      6.87512      6.87512      5.21496         0.027383     -0.031269     -0.024357
      6.87512      6.87512      8.69159        -0.028159      0.002913     -0.046846
 -----------------------------------------------------------------------------------
    total drift:                                0.000001     -0.000001     -0.000031


--------------------------------------------------------------------------------------------------------



  FREE ENERGIE OF THE ION-ELECTRON SYSTEM (eV)
  ---------------------------------------------------
  free  energy   TOTEN  =      -356.33739618 eV

  energy  without entropy=     -356.31965213  energy(sigma->0) =     -356.33148150
 


--------------------------------------------------------------------------------------------------------


    POTLOK:  cpu time    0.8684: real time    0.8686


--------------------------------------------------------------------------------------------------------


     LOOP+:  cpu time 2121.9606: real time 2146.1803
    4ORBIT:  cpu time    0.0000: real time    0.0000
 


 total charge     
 
# of ion       s       p       d       tot
------------------------------------------
    1        0.405   0.427   0.000   0.832
    2        0.405   0.430   0.000   0.834
    3        0.405   0.428   0.000   0.833
    4        0.405   0.427   0.000   0.832
    5        0.405   0.429   0.000   0.834
    6        0.405   0.428   0.000   0.834
    7        0.405   0.427   0.000   0.832
    8        0.404   0.429   0.000   0.834
    9        0.405   0.428   0.000   0.833
   10        0.405   0.427   0.000   0.832
   11        0.404   0.429   0.000   0.833
   12        0.405   0.428   0.000   0.833
   13        0.405   0.427   0.000   0.832
   14        0.405   0.429   0.000   0.834
   15        0.405   0.428   0.000   0.833
   16        0.405   0.427   0.000   0.833
   17        0.404   0.427   0.000   0.831
   18        0.405   0.425   0.000   0.831
   19        0.405   0.427   0.000   0.832
   20        0.405   0.429   0.000   0.834
   21        0.405   0.428   0.000   0.833
   22        0.405   0.427   0.000   0.832
   23        0.405   0.428   0.000   0.833
   24        0.405   0.427   0.000   0.833
   25        0.405   0.427   0.000   0.832
   26        0.405   0.429   0.000   0.833
   27        0.405   0.428   0.000   0.833
   28        0.334   0.349   5.141   5.823
   29        0.332   0.356   5.163   5.851
   30        0.334   0.353   5.126   5.812
   31        0.334   0.351   5.142   5.827
   32        0.333   0.353   5.144   5.831
   33        0.334   0.351   5.142   5.827
   34        0.335   0.352   5.134   5.821
   35        0.330   0.353   5.139   5.823
   36        0.335   0.349   5.139   5.822
   37        0.332   0.353   5.140   5.824
   38        0.335   0.353   5.115   5.802
   39        0.335   0.349   5.135   5.818
   40        0.333   0.349   5.138   5.821
   41        0.335   0.356   5.123   5.814
   42        0.333   0.353   5.133   5.819
   43        0.334   0.351   5.129   5.815
   44        0.333   0.356   5.118   5.807
   45        0.333   0.350   5.130   5.814
   46        0.331   0.351   5.138   5.820
   47        0.334   0.354   5.127   5.815
   48        0.334   0.351   5.137   5.822
   49        0.332   0.353   5.130   5.815
   50        0.334   0.356   5.149   5.838
   51        0.335   0.348   5.142   5.825
   52        0.334   0.350   5.134   5.818
   53        0.332   0.357   5.105   5.794
   54        0.334   0.352   5.140   5.826
--------------------------------------------------
tot         19.937  21.060 138.631 179.628
 


 magnetization (x)
 
# of ion       s       p       d       tot
------------------------------------------
    1       -0.000  -0.001   0.000  -0.001
    2       -0.016  -0.029   0.000  -0.044
    3        0.006   0.010   0.000   0.016
    4        0.000   0.000   0.000   0.001
    5       -0.011  -0.021   0.000  -0.032
    6        0.010   0.020   0.000   0.030
    7       -0.000   0.001   0.000   0.001
    8       -0.017  -0.030   0.000  -0.047
    9        0.005   0.010   0.000   0.014
   10       -0.000   0.001   0.000   0.001
   11       -0.017  -0.030   0.000  -0.047
   12        0.005   0.009   0.000   0.014
   13        0.000  -0.001   0.000  -0.001
   14       -0.016  -0.028   0.000  -0.044
   15        0.006   0.011   0.000   0.017
   16       -0.000  -0.000   0.000  -0.001
   17       -0.021  -0.036   0.000  -0.058
   18        0.001   0.002   0.000   0.003
   19       -0.000   0.001   0.000   0.001
   20       -0.011  -0.020   0.000  -0.031
   21        0.010   0.020   0.000   0.030
   22       -0.000   0.002   0.000   0.002
   23       -0.007  -0.011   0.000  -0.018
   24        0.015   0.029   0.000   0.043
   25        0.000  -0.001   0.000  -0.001
   26       -0.016  -0.027   0.000  -0.043
   27        0.006   0.013   0.000   0.019
   28        0.019   0.016   2.392   2.427
   29        0.027   0.028   2.251   2.305
   30       -0.014  -0.022  -2.273  -2.308
   31        0.017   0.020   2.359   2.396
   32        0.018   0.017   2.369   2.404
   33       -0.014  -0.018  -2.270  -2.302
   34        0.016   0.024   2.353   2.393
   35        0.006   0.004   2.305   2.315
   36       -0.016  -0.013  -2.294  -2.322
   37        0.012   0.021   2.233   2.266
   38       -0.027  -0.022  -2.300  -2.349
   39       -0.020  -0.016  -2.381  -2.416
   40        0.019   0.016   2.382   2.417
   41        0.029   0.028   2.472   2.529
   42       -0.013  -0.022  -2.267  -2.301
   43        0.018   0.020   2.371   2.409
   44        0.017   0.015   2.376   2.408
   45       -0.014  -0.017  -2.284  -2.315
   46        0.014   0.018   2.251   2.283
   47       -0.018  -0.011  -2.458  -2.487
   48       -0.017  -0.019  -2.332  -2.368
   49        0.012   0.022   2.230   2.264
   50       -0.027  -0.023  -2.346  -2.396
   51       -0.019  -0.015  -2.367  -2.401
   52        0.020   0.017   2.393   2.430
   53        0.025   0.026   2.217   2.268
   54       -0.013  -0.020  -2.258  -2.291
--------------------------------------------------
tot         -0.011  -0.032   7.126   7.083
 

 total amount of memory used by VASP MPI-rank0  1042002. kBytes
=======================================================================

   base      :      30000. kBytes
   nonl-proj :      34131. kBytes
   fftplans  :      31580. kBytes
   grid      :      21385. kBytes
   one-center:        435. kBytes
   wavefun   :     924471. kBytes
 
  
  
 General timing and accounting informations for this job:
 ========================================================
  
                  Total CPU time used (sec):     2159.821
                            User time (sec):     2131.497
                          System time (sec):       28.324
                         Elapsed time (sec):     2186.424
  
                   Maximum memory used (kb):     1220016.
                   Average memory used (kb):           0.
  
                          Minor page faults:       782262
                          Major page faults:           15
                 Voluntary context switches:         3297
