 vasp.5.4.4.18Apr17-6-g9f103f2a35 (build Dec 20 2018 12:05:58) complex          
  
 executed on             LinuxIFC date 2019.06.20  20:38:53
 running on   32 total cores
 distrk:  each k-point on    8 cores,    4 groups
 distr:  one band on NCORES_PER_BAND=   4 cores,    2 groups


--------------------------------------------------------------------------------------------------------


 INCAR:
 POTCAR:    PAW_PBE Al 04Jan2001                  
 POTCAR:    PAW_PBE Mn 06Sep2000                  

 ----------------------------------------------------------------------------- 
|                                                                             |
|           W    W    AA    RRRRR   N    N  II  N    N   GGGG   !!!           |
|           W    W   A  A   R    R  NN   N  II  NN   N  G    G  !!!           |
|           W    W  A    A  R    R  N N  N  II  N N  N  G       !!!           |
|           W WW W  AAAAAA  RRRRR   N  N N  II  N  N N  G  GGG   !            |
|           WW  WW  A    A  R   R   N   NN  II  N   NN  G    G                |
|           W    W  A    A  R    R  N    N  II  N    N   GGGG   !!!           |
|                                                                             |
|      You have enabled k-point parallelism (KPAR>1).                         |
|      This developmental code was originally  written by Paul Kent at ORNL,  |
|      and carefully double checked in Vienna.                                |
|      GW as well as linear response parallelism added by Martijn Marsman     |
|      and Georg Kresse.                                                      |
|      Carefully verify results versus KPAR=1.                                |
|      Report problems to Paul Kent and Vienna.                               |
|                                                                             |
 ----------------------------------------------------------------------------- 

 POTCAR:    PAW_PBE Al 04Jan2001                  
   VRHFIN =Al: s2p1                                                             
   LEXCH  = PE                                                                  
   EATOM  =    53.5387 eV,    3.9350 Ry                                         
                                                                                
   TITEL  = PAW_PBE Al 04Jan2001                                                
   LULTRA =        F    use ultrasoft PP ?                                      
   IUNSCR =        1    unscreen: 0-lin 1-nonlin 2-no                           
   RPACOR =    1.500    partial core radius                                     
   POMASS =   26.981; ZVAL   =    3.000    mass and valenz                      
   RCORE  =    1.900    outmost cutoff radius                                   
   RWIGS  =    2.650; RWIGS  =    1.402    wigner-seitz radius (au A)           
   ENMAX  =  240.300; ENMIN  =  180.225 eV                                      
   ICORE  =        2    local potential                                         
   LCOR   =        T    correct aug charges                                     
   LPAW   =        T    paw PP                                                  
   EAUG   =  291.052                                                            
   DEXC   =    0.000                                                            
   RMAX   =    1.939    core radius for proj-oper                               
   RAUG   =    1.300    factor for augmentation sphere                          
   RDEP   =    1.966    radius for radial grids                                 
   RDEPT  =    1.856    core radius for aug-charge                              
                                                                                
   Atomic configuration                                                         
    6 entries                                                                   
     n  l   j            E        occ.                                          
     1  0  0.50     -1511.1048   2.0000                                         
     2  0  0.50      -108.1629   2.0000                                         
     2  1  1.50       -69.6402   6.0000                                         
     3  0  0.50        -7.7528   2.0000                                         
     3  1  1.50        -2.7121   1.0000                                         
     3  2  2.50        -2.7212   0.0000                                         
   Description                                                                  
     l       E           TYP  RCUT    TYP  RCUT                                 
     0     -7.7528455     23  1.900                                             
     0     -3.3096929     23  1.900                                             
     1     -2.7120682     23  1.900                                             
     1     13.6058260     23  1.900                                             
     2     -2.7211652      7  1.900                                             
  local pseudopotential read in
  partial core-charges read in
  partial kinetic energy density read in
  atomic valenz-charges read in
  non local Contribution for L=           0  read in
    real space projection operators read in
  non local Contribution for L=           0  read in
    real space projection operators read in
  non local Contribution for L=           1  read in
    real space projection operators read in
  non local Contribution for L=           1  read in
    real space projection operators read in
    PAW grid and wavefunctions read in
 
   number of l-projection  operators is LMAX  =           4
   number of lm-projection operators is LMMAX =           8
 
 POTCAR:    PAW_PBE Mn 06Sep2000                  
   VRHFIN =Mn: d6 s1                                                            
   LEXCH  = PE                                                                  
   EATOM  =   416.7541 eV,   30.6306 Ry                                         
                                                                                
   TITEL  = PAW_PBE Mn 06Sep2000                                                
   LULTRA =        F    use ultrasoft PP ?                                      
   IUNSCR =        1    unscreen: 0-lin 1-nonlin 2-no                           
   RPACOR =    2.000    partial core radius                                     
   POMASS =   54.938; ZVAL   =    7.000    mass and valenz                      
   RCORE  =    2.300    outmost cutoff radius                                   
   RWIGS  =    2.500; RWIGS  =    1.323    wigner-seitz radius (au A)           
   ENMAX  =  269.864; ENMIN  =  202.398 eV                                      
   RCLOC  =    1.725    cutoff for local pot                                    
   LCOR   =        T    correct aug charges                                     
   LPAW   =        T    paw PP                                                  
   EAUG   =  500.711                                                            
   DEXC   =    0.000                                                            
   RMAX   =    2.343    core radius for proj-oper                               
   RAUG   =    1.300    factor for augmentation sphere                          
   RDEP   =    2.338    radius for radial grids                                 
   RDEPT  =    1.911    core radius for aug-charge                              
                                                                                
   Atomic configuration                                                         
    9 entries                                                                   
     n  l   j            E        occ.                                          
     1  0  0.50     -6424.8288   2.0000                                         
     2  0  0.50      -739.1154   2.0000                                         
     2  1  1.50      -625.3949   6.0000                                         
     3  0  0.50       -81.6100   2.0000                                         
     3  1  1.50       -50.4667   6.0000                                         
     3  2  2.50        -3.3745   6.0000                                         
     4  0  0.50        -4.1331   1.0000                                         
     4  1  0.50        -4.0817   0.0000                                         
     4  3  2.50        -1.3606   0.0000                                         
   Description                                                                  
     l       E           TYP  RCUT    TYP  RCUT                                 
     2     -3.3744664     23  2.300                                             
     2     -4.7350490     23  2.300                                             
     0     -4.1331408     23  2.300                                             
     0      7.6656614     23  2.300                                             
     1     -2.7211652     23  2.300                                             
     1     20.4087390     23  2.300                                             
  local pseudopotential read in
  partial core-charges read in
  partial kinetic energy density read in
  atomic valenz-charges read in
  non local Contribution for L=           2  read in
    real space projection operators read in
  non local Contribution for L=           2  read in
    real space projection operators read in
  non local Contribution for L=           0  read in
    real space projection operators read in
  non local Contribution for L=           0  read in
    real space projection operators read in
  non local Contribution for L=           1  read in
    real space projection operators read in
  non local Contribution for L=           1  read in
    real space projection operators read in
    PAW grid and wavefunctions read in
 
   number of l-projection  operators is LMAX  =           6
   number of lm-projection operators is LMMAX =          18
 

 ----------------------------------------------------------------------------- 
|                                                                             |
|  ADVICE TO THIS USER RUNNING 'VASP/VAMP'   (HEAR YOUR MASTER'S VOICE ...):  |
|                                                                             |
|      You have a (more or less) 'large supercell' and for larger cells       |
|      it might be more efficient to use real space projection opertators     |
|      So try LREAL= Auto  in the INCAR   file.                               |
|      Mind:          For very  accurate calculation you might also keep the  |
|      reciprocal projection scheme          (i.e. LREAL=.FALSE.)             |
|                                                                             |
 ----------------------------------------------------------------------------- 

  PAW_PBE Al 04Jan2001                  :
 energy of atom  1       EATOM=  -53.5387
 kinetic energy error for atom=    0.0005 (will be added to EATOM!!)
  PAW_PBE Mn 06Sep2000                  :
 energy of atom  2       EATOM= -416.7541
 kinetic energy error for atom=    0.0080 (will be added to EATOM!!)
 
 
 POSCAR: NewRef: 27, @ ['Mn', array([1.37502469, 
  positions in cartesian coordinates
  velocities in cartesian coordinates
  No initial velocities read in
 exchange correlation table for  LEXCH =        8
   RHO(1)=    0.500       N(1)  =     2000
   RHO(2)=  100.500       N(2)  =     4000
 


--------------------------------------------------------------------------------------------------------


 ion  position               nearest neighbor table
   1  0.000  0.000  0.000-  28 2.61  30 2.61  34 2.61  36 2.61  46 2.61  48 2.61  52 2.61  54 2.61
                             4 2.75  10 2.75   7 2.75  19 2.75
   2  0.000  0.000  0.333-  28 2.61  34 2.61  46 2.61  52 2.61  29 2.61  47 2.61  35 2.61  53 2.61
                             5 2.75  11 2.75   8 2.75  20 2.75
   3  0.000  0.000  0.667-  29 2.61  35 2.61  47 2.61  53 2.61  30 2.61  48 2.61  36 2.61  54 2.61
                             6 2.75  12 2.75   9 2.75  21 2.75
   4  0.000  0.333  0.000-  28 2.61  30 2.61  46 2.61  48 2.61  31 2.61  33 2.61  49 2.61  51 2.61
                            13 2.75   1 2.75   7 2.75  22 2.75
   5  0.000  0.333  0.333-  28 2.61  46 2.61  31 2.61  49 2.61  47 2.61  29 2.61  32 2.61  50 2.61
                            14 2.75   2 2.75   8 2.75  23 2.75
   6  0.000  0.333  0.667-  29 2.61  47 2.61  32 2.61  50 2.61  48 2.61  30 2.61  33 2.61  51 2.61
                            15 2.75   3 2.75   9 2.75  24 2.75
   7  0.000  0.667  0.000-  31 2.61  33 2.61  49 2.61  51 2.61  34 2.61  36 2.61  52 2.61  54 2.61
                             4 2.75  16 2.75   1 2.75  25 2.75
   8  0.000  0.667  0.333-  31 2.61  49 2.61  34 2.61  52 2.61  50 2.61  32 2.61  35 2.61  53 2.61
                             5 2.75  17 2.75   2 2.75  26 2.75
   9  0.000  0.667  0.667-  32 2.61  50 2.61  35 2.61  53 2.61  51 2.61  33 2.61  36 2.61  54 2.61
                             6 2.75  18 2.75   3 2.75  27 2.75
  10  0.333  0.000  0.000-  28 2.61  30 2.61  34 2.61  36 2.61  37 2.61  39 2.61  43 2.61  45 2.61
                            19 2.75   1 2.75  13 2.75  16 2.75
  11  0.333  0.000  0.333-  28 2.61  34 2.61  37 2.61  43 2.61  29 2.61  35 2.61  38 2.61  44 2.61
                            20 2.75   2 2.75  14 2.75  17 2.75
  12  0.333  0.000  0.667-  29 2.61  35 2.61  38 2.61  44 2.61  30 2.61  36 2.61  39 2.61  45 2.61
                            21 2.75   3 2.75  15 2.75  18 2.75
  13  0.333  0.333  0.000-  28 2.61  30 2.61  31 2.61  33 2.61  37 2.61  39 2.61  40 2.61  42 2.61
                             4 2.75  10 2.75  16 2.75  22 2.75
  14  0.333  0.333  0.333-  28 2.61  31 2.61  37 2.61  29 2.61  40 2.61  38 2.61  32 2.61  41 2.61
                             5 2.75  11 2.75  17 2.75  23 2.75
  15  0.333  0.333  0.667-  29 2.61  32 2.61  38 2.61  30 2.61  41 2.61  39 2.61  33 2.61  42 2.61
                             6 2.75  12 2.75  18 2.75  24 2.75
  16  0.333  0.667  0.000-  31 2.61  33 2.61  34 2.61  36 2.61  40 2.61  42 2.61  43 2.61  45 2.61
                            25 2.75   7 2.75  13 2.75  10 2.75
  17  0.333  0.667  0.333-  31 2.61  34 2.61  40 2.61  32 2.61  43 2.61  41 2.61  35 2.61  44 2.61
                            26 2.75   8 2.75  14 2.75  11 2.75
  18  0.333  0.667  0.667-  32 2.61  35 2.61  41 2.61  33 2.61  44 2.61  42 2.61  36 2.61  45 2.61
                            27 2.75   9 2.75  15 2.75  12 2.75
  19  0.667  0.000  0.000-  37 2.61  39 2.61  43 2.61  45 2.61  46 2.61  48 2.61  52 2.61  54 2.61
                            10 2.75  22 2.75   1 2.75  25 2.75
  20  0.667  0.000  0.333-  37 2.61  43 2.61  46 2.61  52 2.61  38 2.61  44 2.61  47 2.61  53 2.61
                            11 2.75  23 2.75   2 2.75  26 2.75
  21  0.667  0.000  0.667-  38 2.61  44 2.61  47 2.61  53 2.61  39 2.61  45 2.61  48 2.61  54 2.61
                            12 2.75  24 2.75   3 2.75  27 2.75
  22  0.667  0.333  0.000-  37 2.61  39 2.61  40 2.61  42 2.61  46 2.61  48 2.61  49 2.61  51 2.61
                            25 2.75  13 2.75  19 2.75   4 2.75
  23  0.667  0.333  0.333-  37 2.61  40 2.61  46 2.61  38 2.61  49 2.61  47 2.61  41 2.61  50 2.61
                            26 2.75  14 2.75  20 2.75   5 2.75
  24  0.667  0.333  0.667-  38 2.61  41 2.61  47 2.61  39 2.61  50 2.61  48 2.61  42 2.61  51 2.61
                            27 2.75  15 2.75  21 2.75   6 2.75
  25  0.667  0.667  0.000-  40 2.61  42 2.61  43 2.61  45 2.61  49 2.61  51 2.61  52 2.61  54 2.61
                            16 2.75  22 2.75  19 2.75   7 2.75
  26  0.667  0.667  0.333-  40 2.61  43 2.61  49 2.61  41 2.61  52 2.61  50 2.61  44 2.61  53 2.61
                            17 2.75  23 2.75  20 2.75   8 2.75
  27  0.667  0.667  0.667-  41 2.61  44 2.61  50 2.61  42 2.61  53 2.61  51 2.61  45 2.61  54 2.61
                            18 2.75  24 2.75  21 2.75   9 2.75
  28  0.167  0.167  0.167-  14 2.61  11 2.61   5 2.61  13 2.61   2 2.61  10 2.61   4 2.61   1 2.61
                            31 2.75  37 2.75  34 2.75  46 2.75
  29  0.167  0.167  0.500-  15 2.61  12 2.61   6 2.61  14 2.61   3 2.61  11 2.61   5 2.61   2 2.61
                            32 2.75  38 2.75  35 2.75  47 2.75
  30  0.167  0.167  0.833-  13 2.61  15 2.61  10 2.61  12 2.61   4 2.61   6 2.61   1 2.61   3 2.61
                            33 2.75  39 2.75  36 2.75  48 2.75
  31  0.167  0.500  0.167-  17 2.61  14 2.61   8 2.61  16 2.61   5 2.61  13 2.61   7 2.61   4 2.61
                            28 2.75  34 2.75  40 2.75  49 2.75
  32  0.167  0.500  0.500-  18 2.61  15 2.61   9 2.61  17 2.61   6 2.61  14 2.61   8 2.61   5 2.61
                            29 2.75  35 2.75  41 2.75  50 2.75
  33  0.167  0.500  0.833-  16 2.61  18 2.61  13 2.61  15 2.61   7 2.61   9 2.61   4 2.61   6 2.61
                            30 2.75  36 2.75  42 2.75  51 2.75
  34  0.167  0.833  0.167-  11 2.61  17 2.61   2 2.61   8 2.61  16 2.61  10 2.61   7 2.61   1 2.61
                            31 2.75  43 2.75  28 2.75  52 2.75
  35  0.167  0.833  0.500-  12 2.61  18 2.61   3 2.61   9 2.61  17 2.61  11 2.61   8 2.61   2 2.61
                            32 2.75  44 2.75  29 2.75  53 2.75
  36  0.167  0.833  0.833-  10 2.61  12 2.61  16 2.61  18 2.61   1 2.61   3 2.61   7 2.61   9 2.61
                            33 2.75  45 2.75  30 2.75  54 2.75
  37  0.500  0.167  0.167-  23 2.61  20 2.61  14 2.61  22 2.61  11 2.61  19 2.61  13 2.61  10 2.61
                            28 2.75  40 2.75  46 2.75  43 2.75
  38  0.500  0.167  0.500-  24 2.61  21 2.61  15 2.61  23 2.61  12 2.61  20 2.61  14 2.61  11 2.61
                            29 2.75  41 2.75  47 2.75  44 2.75
  39  0.500  0.167  0.833-  22 2.61  24 2.61  19 2.61  21 2.61  13 2.61  15 2.61  10 2.61  12 2.61
                            30 2.75  42 2.75  48 2.75  45 2.75
  40  0.500  0.500  0.167-  26 2.61  23 2.61  17 2.61  25 2.61  14 2.61  22 2.61  16 2.61  13 2.61
                            31 2.75  37 2.75  43 2.75  49 2.75
  41  0.500  0.500  0.500-  27 2.61  24 2.61  18 2.61  26 2.61  15 2.61  23 2.61  17 2.61  14 2.61
                            32 2.75  38 2.75  44 2.75  50 2.75
  42  0.500  0.500  0.833-  25 2.61  27 2.61  22 2.61  24 2.61  16 2.61  18 2.61  13 2.61  15 2.61
                            33 2.75  39 2.75  45 2.75  51 2.75
  43  0.500  0.833  0.167-  20 2.61  26 2.61  11 2.61  17 2.61  25 2.61  19 2.61  16 2.61  10 2.61
                            34 2.75  40 2.75  52 2.75  37 2.75
  44  0.500  0.833  0.500-  21 2.61  27 2.61  12 2.61  18 2.61  26 2.61  20 2.61  17 2.61  11 2.61
                            35 2.75  41 2.75  53 2.75  38 2.75
  45  0.500  0.833  0.833-  19 2.61  21 2.61  25 2.61  27 2.61  10 2.61  12 2.61  16 2.61  18 2.61
                            36 2.75  42 2.75  54 2.75  39 2.75
  46  0.833  0.167  0.167-   5 2.61  23 2.61  20 2.61   2 2.61  22 2.61   4 2.61  19 2.61   1 2.61
                            37 2.75  49 2.75  28 2.75  52 2.75
  47  0.833  0.167  0.500-   6 2.61  24 2.61  21 2.61   3 2.61  23 2.61   5 2.61  20 2.61   2 2.61
                            38 2.75  50 2.75  29 2.75  53 2.75
  48  0.833  0.167  0.833-   4 2.61   6 2.61  22 2.61  24 2.61  19 2.61  21 2.61   1 2.61   3 2.61
                            39 2.75  51 2.75  30 2.75  54 2.75
  49  0.833  0.500  0.167-   8 2.61  26 2.61  23 2.61   5 2.61  25 2.61   7 2.61  22 2.61   4 2.61
                            40 2.75  46 2.75  52 2.75  31 2.75
  50  0.833  0.500  0.500-   9 2.61  27 2.61  24 2.61   6 2.61  26 2.61   8 2.61  23 2.61   5 2.61
                            41 2.75  47 2.75  53 2.75  32 2.75
  51  0.833  0.500  0.833-   7 2.61   9 2.61  25 2.61  27 2.61  22 2.61  24 2.61   4 2.61   6 2.61
                            42 2.75  48 2.75  54 2.75  33 2.75
  52  0.833  0.833  0.167-   2 2.61   8 2.61  20 2.61  26 2.61  19 2.61   7 2.61  25 2.61   1 2.61
                            43 2.75  49 2.75  46 2.75  34 2.75
  53  0.833  0.833  0.500-   3 2.61   9 2.61  21 2.61  27 2.61  20 2.61   8 2.61  26 2.61   2 2.61
                            44 2.75  50 2.75  47 2.75  35 2.75
  54  0.833  0.833  0.833-   1 2.61   3 2.61   7 2.61   9 2.61  19 2.61  21 2.61  25 2.61  27 2.61
                            45 2.75  51 2.75  48 2.75  36 2.75
 
  LATTYP: Found a simple tetragonal cell.
 ALAT       =     8.2501481662
 C/A-ratio  =     1.2642089792
  
  Lattice vectors:
  
 A1 = (   8.2501481662,   0.0000000000,   0.0000000000)
 A2 = (   0.0000000000,   8.2501481662,   0.0000000000)
 A3 = (   0.0000000000,   0.0000000000,  10.4299113916)


Analysis of symmetry for initial positions (statically):
=====================================================================
 Subroutine PRICEL returns following result:
 
  LATTYP: Found a simple tetragonal cell.
 ALAT       =     2.7500493888
 C/A-ratio  =     1.2642089792
  
  Lattice vectors:
  
 A1 = (   2.7500493888,   0.0000000000,   0.0000000000)
 A2 = (   0.0000000000,   2.7500493888,   0.0000000000)
 A3 = (   0.0000000000,   0.0000000000,   3.4766371306)
 
  27 primitive cells build up your supercell.
 

 Routine SETGRP: Setting up the symmetry group for a 
 simple tetragonal supercell.


 Subroutine GETGRP returns: Found 16 space group operations
 (whereof 16 operations were pure point group operations)
 out of a pool of 16 trial point group operations.


The static configuration has the point symmetry D_4h.


Analysis of symmetry for dynamics (positions and initial velocities):
=====================================================================
 Subroutine PRICEL returns following result:
 
  LATTYP: Found a simple tetragonal cell.
 ALAT       =     2.7500493888
 C/A-ratio  =     1.2642089792
  
  Lattice vectors:
  
 A1 = (   2.7500493888,   0.0000000000,   0.0000000000)
 A2 = (   0.0000000000,   2.7500493888,   0.0000000000)
 A3 = (   0.0000000000,   0.0000000000,   3.4766371306)
 
  27 primitive cells build up your supercell.
 

 Routine SETGRP: Setting up the symmetry group for a 
 simple tetragonal supercell.


 Subroutine GETGRP returns: Found 16 space group operations
 (whereof 16 operations were pure point group operations)
 out of a pool of 16 trial point group operations.


The dynamic configuration has the point symmetry D_4h.


Analysis of structural, dynamic, and magnetic symmetry:
=====================================================================
 Subroutine PRICEL returns:
 Original cell was already a primitive cell.
 

 Routine SETGRP: Setting up the symmetry group for a 
 simple tetragonal supercell.


 Subroutine GETGRP returns: Found 16 space group operations
 (whereof  2 operations were pure point group operations)
 out of a pool of 16 trial point group operations.


The magnetic configuration has the point symmetry C_1h.
 The point group associated with its full space group is D_4h.


 Subroutine INISYM returns: Found 16 space group operations
 (whereof  2 operations are pure point group operations),
 and found     1 'primitive' translations

 
 
 KPOINTS: automatic KPOINTS                       

Automatic generation of k-mesh.
 generate k-points for:    5    5    4
Space group operators:
 irot       det(A)        alpha          n_x          n_y          n_z        tau_x        tau_y        tau_z
    1     1.000000     0.000001     1.000000     0.000000     0.000000     0.000000     0.000000     0.000000
    2    -1.000000   180.000000     0.000000     1.000000     0.000000     0.000000     0.000000     0.000000
    3    -1.000000     0.000001     1.000000     0.000000     0.000000     0.666667     0.000000     0.333333
    4     1.000000    90.000000     0.000000     0.000000    -1.000000     0.333333     0.666667     0.000000
    5    -1.000000    90.000000     0.000000     0.000000    -1.000000     0.333333     0.333333     0.333333
    6     1.000000   180.000000     0.000000     0.000000     1.000000     0.666667     0.000000     0.000000
    7    -1.000000   180.000000     0.000000     0.000000     1.000000     0.000000     0.000000     0.333333
    8     1.000000    90.000000     0.000000     0.000000     1.000000     0.333333     0.333333     0.000000
    9    -1.000000    90.000000     0.000000     0.000000     1.000000     0.333333     0.666667     0.333333
   10     1.000000   180.000000     0.000000     1.000000     0.000000     0.666667     0.000000     0.333333
   11     1.000000   180.000000     0.707107     0.707107     0.000000     0.333333     0.666667     0.333333
   12    -1.000000   180.000000     0.707107     0.707107     0.000000     0.333333     0.333333     0.000000
   13     1.000000   180.000000     1.000000     0.000000     0.000000     0.000000     0.000000     0.333333
   14    -1.000000   180.000000     1.000000     0.000000     0.000000     0.666667     0.000000     0.000000
   15     1.000000   180.000000     0.707107    -0.707107     0.000000     0.333333     0.333333     0.333333
   16    -1.000000   180.000000     0.707107    -0.707107     0.000000     0.333333     0.666667     0.000000
 
 Subroutine IBZKPT returns following result:
 ===========================================
 
 Found     18 irreducible k-points:
 
 Following reciprocal coordinates:
            Coordinates               Weight
  0.000000  0.000000  0.000000      1.000000
  0.200000  0.000000  0.000000      4.000000
  0.400000  0.000000  0.000000      4.000000
  0.200000  0.200000  0.000000      4.000000
  0.400000  0.200000  0.000000      8.000000
  0.400000  0.400000  0.000000      4.000000
  0.000000  0.000000  0.250000      2.000000
  0.200000  0.000000  0.250000      8.000000
  0.400000  0.000000  0.250000      8.000000
  0.200000  0.200000  0.250000      8.000000
  0.400000  0.200000  0.250000     16.000000
  0.400000  0.400000  0.250000      8.000000
  0.000000  0.000000  0.500000      1.000000
  0.200000  0.000000  0.500000      4.000000
  0.400000  0.000000  0.500000      4.000000
  0.200000  0.200000  0.500000      4.000000
  0.400000  0.200000  0.500000      8.000000
  0.400000  0.400000  0.500000      4.000000
 
 Following cartesian coordinates:
            Coordinates               Weight
  0.000000  0.000000  0.000000      1.000000
  0.024242  0.000000  0.000000      4.000000
  0.048484  0.000000  0.000000      4.000000
  0.024242  0.024242  0.000000      4.000000
  0.048484  0.024242  0.000000      8.000000
  0.048484  0.048484  0.000000      4.000000
  0.000000  0.000000  0.023970      2.000000
  0.024242  0.000000  0.023970      8.000000
  0.048484  0.000000  0.023970      8.000000
  0.024242  0.024242  0.023970      8.000000
  0.048484  0.024242  0.023970     16.000000
  0.048484  0.048484  0.023970      8.000000
  0.000000  0.000000  0.047939      1.000000
  0.024242  0.000000  0.047939      4.000000
  0.048484  0.000000  0.047939      4.000000
  0.024242  0.024242  0.047939      4.000000
  0.048484  0.024242  0.047939      8.000000
  0.048484  0.048484  0.047939      4.000000
 


--------------------------------------------------------------------------------------------------------




 Dimension of arrays:
   k-points           NKPTS =     18   k-points in BZ     NKDIM =     18   number of bands    NBANDS=    148
   number of dos      NEDOS =    301   number of ions     NIONS =     54
   non local maximal  LDIM  =      6   non local SUM 2l+1 LMDIM =     18
   total plane-waves  NPLWV = 204120
   max r-space proj   IRMAX =      1   max aug-charges    IRDMAX=  89713
   dimension x,y,z NGX =    54 NGY =   54 NGZ =   70
   dimension x,y,z NGXF=   108 NGYF=  108 NGZF=  140
   support grid    NGXF=   216 NGYF=  216 NGZF=  280
   ions per type =              27  27
   NGX,Y,Z   is equivalent  to a cutoff of  10.88, 10.88, 11.16 a.u.
   NGXF,Y,Z  is equivalent  to a cutoff of  21.76, 21.76, 22.32 a.u.

 SYSTEM =  AlMn_pv                                 
 POSCAR =  NewRef: 27, @ ['Mn', array([1.37502469, 

 Startparameter for this run:
   NWRITE =      2    write-flag & timer
   PREC   = accura    normal or accurate (medium, high low for compatibility)
   ISTART =      0    job   : 0-new  1-cont  2-samecut
   ICHARG =      2    charge: 1-file 2-atom 10-const
   ISPIN  =      2    spin polarized calculation?
   LNONCOLLINEAR =      F non collinear calculations
   LSORBIT =      F    spin-orbit coupling
   INIWAV =      1    electr: 0-lowe 1-rand  2-diag
   LASPH  =      F    aspherical Exc in radial PAW
   METAGGA=      F    non-selfconsistent MetaGGA calc.

 Electronic Relaxation 1
   ENCUT  =  404.8 eV  29.75 Ry    5.45 a.u.  13.53 13.53 17.11*2*pi/ulx,y,z
   ENINI  =  404.8     initial cutoff
   ENAUG  =  500.7 eV  augmentation charge cutoff
   NELM   =    100;   NELMIN=  4; NELMDL= -8     # of ELM steps 
   EDIFF  = 0.1E-06   stopping-criterion for ELM
   LREAL  =      F    real-space projection
   NLSPLINE    = F    spline interpolate recip. space projectors
   LCOMPAT=      F    compatible to vasp.4.4
   GGA_COMPAT  = T    GGA compatible to vasp.4.4-vasp.4.6
   LMAXPAW     = -100 max onsite density
   LMAXMIX     =    2 max onsite mixed and CHGCAR
   VOSKOWN=      0    Vosko Wilk Nusair interpolation
   ROPT   =    0.00000   0.00000
 Ionic relaxation
   EDIFFG = 0.1E-05   stopping-criterion for IOM
   NSW    =      0    number of steps for IOM
   NBLOCK =      1;   KBLOCK =      1    inner block; outer block 
   IBRION =     -1    ionic relax: 0-MD 1-quasi-New 2-CG
   NFREE  =      0    steps in history (QN), initial steepest desc. (CG)
   ISIF   =      2    stress and relaxation
   IWAVPR =     10    prediction:  0-non 1-charg 2-wave 3-comb
   ISYM   =      2    0-nonsym 1-usesym 2-fastsym
   LCORR  =      T    Harris-Foulkes like correction to forces

   POTIM  = 0.2000    time-step for ionic-motion
   TEIN   =    0.0    initial temperature
   TEBEG  =    0.0;   TEEND  =   0.0 temperature during run
   SMASS  =  -3.00    Nose mass-parameter (am)
   estimated Nose-frequenzy (Omega)   =  0.10E-29 period in steps =****** mass=  -0.156E-26a.u.
   SCALEE = 1.0000    scale energy and forces
   NPACO  =    256;   APACO  = 16.0  distance and # of slots for P.C.
   PSTRESS=    0.0 pullay stress

  Mass of Ions in am
   POMASS =  26.98 54.94
  Ionic Valenz
   ZVAL   =   3.00  7.00
  Atomic Wigner-Seitz radii
   RWIGS  =  -1.00 -1.00
  virtual crystal weights 
   VCA    =   1.00  1.00
   NELECT =     270.0000    total number of electrons
   NUPDOWN=      -1.0000    fix difference up-down

 DOS related values:
   EMIN   =  10.00;   EMAX   =-10.00  energy-range for DOS
   EFERMI =   0.00
   ISMEAR =     1;   SIGMA  =   0.20  broadening in eV -4-tet -1-fermi 0-gaus

 Electronic relaxation 2 (details)
   IALGO  =     58    algorithm
   LDIAG  =      T    sub-space diagonalisation (order eigenvalues)
   LSUBROT=      F    optimize rotation matrix (better conditioning)
   TURBO    =      0    0=normal 1=particle mesh
   IRESTART =      0    0=no restart 2=restart with 2 vectors
   NREBOOT  =      0    no. of reboots
   NMIN     =      0    reboot dimension
   EREF     =   0.00    reference energy to select bands
   IMIX   =      4    mixing-type and parameters
     AMIX     =   0.40;   BMIX     =  1.00
     AMIX_MAG =   1.60;   BMIX_MAG =  1.00
     AMIN     =   0.10
     WC   =   100.;   INIMIX=   1;  MIXPRE=   1;  MAXMIX= -45

 Intra band minimization:
   WEIMIN = 0.0000     energy-eigenvalue tresh-hold
   EBREAK =  0.17E-09  absolut break condition
   DEPER  =   0.30     relativ break condition  

   TIME   =   0.40     timestep for ELM

  volume/ion in A,a.u.               =      13.15        88.72
  Fermi-wavevector in a.u.,A,eV,Ry     =   1.186118  2.241439 19.141722  1.406877
  Thomas-Fermi vector in A             =   2.322298
 
 Write flags
   LWAVE        =      F    write WAVECAR
   LDOWNSAMPLE  =      F    k-point downsampling of WAVECAR
   LCHARG       =      F    write CHGCAR
   LVTOT        =      F    write LOCPOT, total local potential
   LVHAR        =      F    write LOCPOT, Hartree potential only
   LELF         =      F    write electronic localiz. function (ELF)
   LORBIT       =     10    0 simple, 1 ext, 2 COOP (PROOUT), +10 PAW based schemes


 Dipole corrections
   LMONO  =      F    monopole corrections only (constant potential shift)
   LDIPOL =      F    correct potential (dipole corrections)
   IDIPOL =      0    1-x, 2-y, 3-z, 4-all directions 
   EPSILON=  1.0000000 bulk dielectric constant

 Exchange correlation treatment:
   GGA     =    --    GGA type
   LEXCH   =     8    internal setting for exchange type
   VOSKOWN=      0    Vosko Wilk Nusair interpolation
   LHFCALC =     F    Hartree Fock is set to
   LHFONE  =     F    Hartree Fock one center treatment
   AEXX    =    0.0000 exact exchange contribution

 Linear response parameters
   LEPSILON=     F    determine dielectric tensor
   LRPA    =     F    only Hartree local field effects (RPA)
   LNABLA  =     F    use nabla operator in PAW spheres
   LVEL    =     F    velocity operator in full k-point grid
   LINTERFAST=   F  fast interpolation
   KINTER  =     0    interpolate to denser k-point grid
   CSHIFT  =0.1000    complex shift for real part using Kramers Kronig
   OMEGAMAX=  -1.0    maximum frequency
   DEG_THRESHOLD= 0.2000000E-02 threshold for treating states as degnerate
   RTIME   =   -0.100 relaxation time in fs
  (WPLASMAI=    0.000 imaginary part of plasma frequency in eV, 0.658/RTIME)
   DFIELD  = 0.0000000 0.0000000 0.0000000 field for delta impulse in time
 
 Orbital magnetization related:
   ORBITALMAG=     F  switch on orbital magnetization
   LCHIMAG   =     F  perturbation theory with respect to B field
   DQ        =  0.001000  dq finite difference perturbation B field
   LLRAUG    =     F  two centre corrections for induced B field



--------------------------------------------------------------------------------------------------------


 Static calculation
 charge density and potential will be updated during run
 spin polarized calculation
 Conjugate gradient for all bands (Freysoldt, et al. PRB 79, 241103 (2009))
 preconditioned conjugated gradient                                        
 perform sub-space diagonalisation
    before iterative eigenvector-optimisation
 modified Broyden-mixing scheme, WC =      100.0
 initial mixing is a Kerker type mixing with AMIX =  0.4000 and BMIX =      1.0000
 Hartree-type preconditioning will be used
 using additional bands           13
 reciprocal scheme for non local part
 use partial core corrections
 no Harris-corrections to forces 
 use gradient corrections 
 use of overlap-Matrix (Vanderbilt PP)
 Methfessel and Paxton  Order N= 1 SIGMA  =   0.20


--------------------------------------------------------------------------------------------------------


  energy-cutoff  :      404.80
  volume of cell :      709.91
      direct lattice vectors                 reciprocal lattice vectors
     8.250148166  0.000000000  0.000000000     0.121209944  0.000000000  0.000000000
     0.000000000  8.250148166  0.000000000     0.000000000  0.121209944  0.000000000
     0.000000000  0.000000000 10.429911392     0.000000000  0.000000000  0.095878092

  length of vectors
     8.250148166  8.250148166 10.429911392     0.121209944  0.121209944  0.095878092


 
 k-points in units of 2pi/SCALE and weight: automatic KPOINTS                       
   0.00000000  0.00000000  0.00000000       0.010
   0.02424199  0.00000000  0.00000000       0.040
   0.04848398  0.00000000  0.00000000       0.040
   0.02424199  0.02424199  0.00000000       0.040
   0.04848398  0.02424199  0.00000000       0.080
   0.04848398  0.04848398  0.00000000       0.040
   0.00000000  0.00000000  0.02396952       0.020
   0.02424199  0.00000000  0.02396952       0.080
   0.04848398  0.00000000  0.02396952       0.080
   0.02424199  0.02424199  0.02396952       0.080
   0.04848398  0.02424199  0.02396952       0.160
   0.04848398  0.04848398  0.02396952       0.080
   0.00000000  0.00000000  0.04793905       0.010
   0.02424199  0.00000000  0.04793905       0.040
   0.04848398  0.00000000  0.04793905       0.040
   0.02424199  0.02424199  0.04793905       0.040
   0.04848398  0.02424199  0.04793905       0.080
   0.04848398  0.04848398  0.04793905       0.040
 
 k-points in reciprocal lattice and weights: automatic KPOINTS                       
   0.00000000  0.00000000  0.00000000       0.010
   0.20000000  0.00000000  0.00000000       0.040
   0.40000000  0.00000000  0.00000000       0.040
   0.20000000  0.20000000  0.00000000       0.040
   0.40000000  0.20000000  0.00000000       0.080
   0.40000000  0.40000000  0.00000000       0.040
   0.00000000  0.00000000  0.25000000       0.020
   0.20000000  0.00000000  0.25000000       0.080
   0.40000000  0.00000000  0.25000000       0.080
   0.20000000  0.20000000  0.25000000       0.080
   0.40000000  0.20000000  0.25000000       0.160
   0.40000000  0.40000000  0.25000000       0.080
   0.00000000  0.00000000  0.50000000       0.010
   0.20000000  0.00000000  0.50000000       0.040
   0.40000000  0.00000000  0.50000000       0.040
   0.20000000  0.20000000  0.50000000       0.040
   0.40000000  0.20000000  0.50000000       0.080
   0.40000000  0.40000000  0.50000000       0.040
 
 position of ions in fractional coordinates (direct lattice) 
   0.00000000  0.00000000  0.00000000
   0.00000000  0.00000000  0.33333333
   0.00000000  0.00000000  0.66666667
   0.00000000  0.33333333  0.00000000
   0.00000000  0.33333333  0.33333333
   0.00000000  0.33333333  0.66666667
   0.00000000  0.66666667  0.00000000
   0.00000000  0.66666667  0.33333333
   0.00000000  0.66666667  0.66666667
   0.33333333  0.00000000  0.00000000
   0.33333333  0.00000000  0.33333333
   0.33333333  0.00000000  0.66666667
   0.33333333  0.33333333  0.00000000
   0.33333333  0.33333333  0.33333333
   0.33333333  0.33333333  0.66666667
   0.33333333  0.66666667  0.00000000
   0.33333333  0.66666667  0.33333333
   0.33333333  0.66666667  0.66666667
   0.66666667  0.00000000  0.00000000
   0.66666667  0.00000000  0.33333333
   0.66666667  0.00000000  0.66666667
   0.66666667  0.33333333  0.00000000
   0.66666667  0.33333333  0.33333333
   0.66666667  0.33333333  0.66666667
   0.66666667  0.66666667  0.00000000
   0.66666667  0.66666667  0.33333333
   0.66666667  0.66666667  0.66666667
   0.16666667  0.16666667  0.16666667
   0.16666667  0.16666667  0.50000000
   0.16666667  0.16666667  0.83333333
   0.16666667  0.50000000  0.16666667
   0.16666667  0.50000000  0.50000000
   0.16666667  0.50000000  0.83333333
   0.16666667  0.83333333  0.16666667
   0.16666667  0.83333333  0.50000000
   0.16666667  0.83333333  0.83333333
   0.50000000  0.16666667  0.16666667
   0.50000000  0.16666667  0.50000000
   0.50000000  0.16666667  0.83333333
   0.50000000  0.50000000  0.16666667
   0.50000000  0.50000000  0.50000000
   0.50000000  0.50000000  0.83333333
   0.50000000  0.83333333  0.16666667
   0.50000000  0.83333333  0.50000000
   0.50000000  0.83333333  0.83333333
   0.83333333  0.16666667  0.16666667
   0.83333333  0.16666667  0.50000000
   0.83333333  0.16666667  0.83333333
   0.83333333  0.50000000  0.16666667
   0.83333333  0.50000000  0.50000000
   0.83333333  0.50000000  0.83333333
   0.83333333  0.83333333  0.16666667
   0.83333333  0.83333333  0.50000000
   0.83333333  0.83333333  0.83333333
 
 position of ions in cartesian coordinates  (Angst):
   0.00000000  0.00000000  0.00000000
   0.00000000  0.00000000  3.47663713
   0.00000000  0.00000000  6.95327426
   0.00000000  2.75004939  0.00000000
   0.00000000  2.75004939  3.47663713
   0.00000000  2.75004939  6.95327426
   0.00000000  5.50009878  0.00000000
   0.00000000  5.50009878  3.47663713
   0.00000000  5.50009878  6.95327426
   2.75004939  0.00000000  0.00000000
   2.75004939  0.00000000  3.47663713
   2.75004939  0.00000000  6.95327426
   2.75004939  2.75004939  0.00000000
   2.75004939  2.75004939  3.47663713
   2.75004939  2.75004939  6.95327426
   2.75004939  5.50009878  0.00000000
   2.75004939  5.50009878  3.47663713
   2.75004939  5.50009878  6.95327426
   5.50009878  0.00000000  0.00000000
   5.50009878  0.00000000  3.47663713
   5.50009878  0.00000000  6.95327426
   5.50009878  2.75004939  0.00000000
   5.50009878  2.75004939  3.47663713
   5.50009878  2.75004939  6.95327426
   5.50009878  5.50009878  0.00000000
   5.50009878  5.50009878  3.47663713
   5.50009878  5.50009878  6.95327426
   1.37502469  1.37502469  1.73831857
   1.37502469  1.37502469  5.21495570
   1.37502469  1.37502469  8.69159283
   1.37502469  4.12507408  1.73831857
   1.37502469  4.12507408  5.21495570
   1.37502469  4.12507408  8.69159283
   1.37502469  6.87512347  1.73831857
   1.37502469  6.87512347  5.21495570
   1.37502469  6.87512347  8.69159283
   4.12507408  1.37502469  1.73831857
   4.12507408  1.37502469  5.21495570
   4.12507408  1.37502469  8.69159283
   4.12507408  4.12507408  1.73831857
   4.12507408  4.12507408  5.21495570
   4.12507408  4.12507408  8.69159283
   4.12507408  6.87512347  1.73831857
   4.12507408  6.87512347  5.21495570
   4.12507408  6.87512347  8.69159283
   6.87512347  1.37502469  1.73831857
   6.87512347  1.37502469  5.21495570
   6.87512347  1.37502469  8.69159283
   6.87512347  4.12507408  1.73831857
   6.87512347  4.12507408  5.21495570
   6.87512347  4.12507408  8.69159283
   6.87512347  6.87512347  1.73831857
   6.87512347  6.87512347  5.21495570
   6.87512347  6.87512347  8.69159283
 


--------------------------------------------------------------------------------------------------------


 k-point  1 :   0.0000 0.0000 0.0000  plane waves:   13099
 k-point  2 :   0.2000 0.0000 0.0000  plane waves:   13101
 k-point  3 :   0.4000 0.0000 0.0000  plane waves:   13111
 k-point  4 :   0.2000 0.2000 0.0000  plane waves:   13137
 k-point  5 :   0.4000 0.2000 0.0000  plane waves:   13119
 k-point  6 :   0.4000 0.4000 0.0000  plane waves:   13129
 k-point  7 :   0.0000 0.0000 0.2500  plane waves:   13134
 k-point  8 :   0.2000 0.0000 0.2500  plane waves:   13149
 k-point  9 :   0.4000 0.0000 0.2500  plane waves:   13119
 k-point 10 :   0.2000 0.2000 0.2500  plane waves:   13145
 k-point 11 :   0.4000 0.2000 0.2500  plane waves:   13134
 k-point 12 :   0.4000 0.4000 0.2500  plane waves:   13108
 k-point 13 :   0.0000 0.0000 0.5000  plane waves:   13186
 k-point 14 :   0.2000 0.0000 0.5000  plane waves:   13124
 k-point 15 :   0.4000 0.0000 0.5000  plane waves:   13152
 k-point 16 :   0.2000 0.2000 0.5000  plane waves:   13136
 k-point 17 :   0.4000 0.2000 0.5000  plane waves:   13128
 k-point 18 :   0.4000 0.4000 0.5000  plane waves:   13112

 maximum and minimum number of plane-waves per node :      3304     3246

 maximum number of plane-waves:     13186
 maximum index in each direction: 
   IXMAX=   13   IYMAX=   13   IZMAX=   17
   IXMIN=  -13   IYMIN=  -13   IZMIN=  -17


 parallel 3D FFT for wavefunctions:
    minimum data exchange during FFTs selected (reduces bandwidth)
 parallel 3D FFT for charge:
    minimum data exchange during FFTs selected (reduces bandwidth)


 total amount of memory used by VASP MPI-rank0   548339. kBytes
=======================================================================

   base      :      30000. kBytes
   nonl-proj :      19946. kBytes
   fftplans  :      31580. kBytes
   grid      :      21385. kBytes
   one-center:        435. kBytes
   wavefun   :     444993. kBytes
 
     INWAV:  cpu time    0.0001: real time    0.0004
 Broyden mixing: mesh for mixing (old mesh)
   NGX = 27   NGY = 27   NGZ = 35
  (NGX  =108   NGY  =108   NGZ  =140)
  gives a total of  25515 points

 initial charge density was supplied:
 charge density of overlapping atoms calculated
 number of electron     270.0000000 magnetization     -33.0000000
 keeping initial charge density in first step


--------------------------------------------------------------------------------------------------------


 Maximum index for augmentation-charges        10967 (set IRDMAX)


--------------------------------------------------------------------------------------------------------


 First call to EWALD:  gamma=   0.199
 Maximum number of real-space cells 3x 3x 2
 Maximum number of reciprocal cells 3x 3x 3

    FEWALD:  cpu time    0.0024: real time    0.0024


--------------------------------------- Iteration      1(   1)  ---------------------------------------


    POTLOK:  cpu time    0.4155: real time    0.4166
    SETDIJ:  cpu time    0.4823: real time    0.4832
    TRIAL :  cpu time   18.7225: real time   19.0119
    CORREC:  cpu time    0.0033: real time    0.0034
    --------------------------------------------
      LOOP:  cpu time   19.7756: real time   20.0733

 eigenvalue-minimisations  : 10656
 total energy-change (2. order) : 0.2125204E+04  (-0.8498461E+04)
 number of electron     270.0000000 magnetization     -33.0000000
 augmentation part      270.0000000 magnetization     -33.0000000

 Free energy of the ion-electron system (eV)
  ---------------------------------------------------
  alpha Z        PSCENC =       798.38614055
  Ewald energy   TEWEN  =    -12901.57693327
  -Hartree energ DENC   =     -2855.60785864
  -exchange      EXHF   =         0.00000000
  -V(xc)+E(xc)   XCENC  =      -995.93092985
  PAW double counting   =     12741.82587617   -11476.22345381
  entropy T*S    EENTRO =         0.00342167
  eigenvalues    EBANDS =      4116.65416998
  atomic energy  EATOM  =     12697.67401269
  ---------------------------------------------------
  free energy    TOTEN  =      2125.20444548 eV

  energy without entropy =     2125.20102381  energy(sigma->0) =     2125.20330492


--------------------------------------------------------------------------------------------------------




--------------------------------------- Iteration      1(   2)  ---------------------------------------


    TRIAL :  cpu time   18.2659: real time   18.4219
    CORREC:  cpu time    0.0042: real time    0.0042
    --------------------------------------------
      LOOP:  cpu time   18.2711: real time   18.4294

 eigenvalue-minimisations  : 10656
 total energy-change (2. order) :-0.2125380E+04  (-0.2109231E+04)
 number of electron     270.0000000 magnetization     -33.0000000
 augmentation part      270.0000000 magnetization     -33.0000000

 Free energy of the ion-electron system (eV)
  ---------------------------------------------------
  alpha Z        PSCENC =       798.38614055
  Ewald energy   TEWEN  =    -12901.57693327
  -Hartree energ DENC   =     -2855.60785864
  -exchange      EXHF   =         0.00000000
  -V(xc)+E(xc)   XCENC  =      -995.93092985
  PAW double counting   =     12741.82587617   -11476.22345381
  entropy T*S    EENTRO =        -0.01256085
  eigenvalues    EBANDS =      1991.29038033
  atomic energy  EATOM  =     12697.67401269
  ---------------------------------------------------
  free energy    TOTEN  =        -0.17532669 eV

  energy without entropy =       -0.16276584  energy(sigma->0) =       -0.17113974


--------------------------------------------------------------------------------------------------------




--------------------------------------- Iteration      1(   3)  ---------------------------------------


    TRIAL :  cpu time   26.1322: real time   26.3052
    CORREC:  cpu time    0.0058: real time    0.0066
    --------------------------------------------
      LOOP:  cpu time   26.1389: real time   26.3150

 eigenvalue-minimisations  : 16492
 total energy-change (2. order) :-0.3286459E+03  (-0.3127391E+03)
 number of electron     270.0000000 magnetization     -33.0000000
 augmentation part      270.0000000 magnetization     -33.0000000

 Free energy of the ion-electron system (eV)
  ---------------------------------------------------
  alpha Z        PSCENC =       798.38614055
  Ewald energy   TEWEN  =    -12901.57693327
  -Hartree energ DENC   =     -2855.60785864
  -exchange      EXHF   =         0.00000000
  -V(xc)+E(xc)   XCENC  =      -995.93092985
  PAW double counting   =     12741.82587617   -11476.22345381
  entropy T*S    EENTRO =         0.00510745
  eigenvalues    EBANDS =      1662.62678273
  atomic energy  EATOM  =     12697.67401269
  ---------------------------------------------------
  free energy    TOTEN  =      -328.82125600 eV

  energy without entropy =     -328.82636345  energy(sigma->0) =     -328.82295848


--------------------------------------------------------------------------------------------------------




--------------------------------------- Iteration      1(   4)  ---------------------------------------


    TRIAL :  cpu time   27.8330: real time   28.1207
    CORREC:  cpu time    0.0052: real time    0.0059
    --------------------------------------------
      LOOP:  cpu time   27.8393: real time   28.1305

 eigenvalue-minimisations  : 17680
 total energy-change (2. order) :-0.6210950E+02  (-0.5842262E+02)
 number of electron     270.0000000 magnetization     -33.0000000
 augmentation part      270.0000000 magnetization     -33.0000000

 Free energy of the ion-electron system (eV)
  ---------------------------------------------------
  alpha Z        PSCENC =       798.38614055
  Ewald energy   TEWEN  =    -12901.57693327
  -Hartree energ DENC   =     -2855.60785864
  -exchange      EXHF   =         0.00000000
  -V(xc)+E(xc)   XCENC  =      -995.93092985
  PAW double counting   =     12741.82587617   -11476.22345381
  entropy T*S    EENTRO =         0.00786029
  eigenvalues    EBANDS =      1600.51452604
  atomic energy  EATOM  =     12697.67401269
  ---------------------------------------------------
  free energy    TOTEN  =      -390.93075985 eV

  energy without entropy =     -390.93862014  energy(sigma->0) =     -390.93337994


--------------------------------------------------------------------------------------------------------




--------------------------------------- Iteration      1(   5)  ---------------------------------------


    TRIAL :  cpu time   28.1948: real time   28.3541
    CORREC:  cpu time    0.0052: real time    0.0052
    --------------------------------------------
      LOOP:  cpu time   28.2007: real time   28.3633

 eigenvalue-minimisations  : 18368
 total energy-change (2. order) :-0.9960095E+01  (-0.9462120E+01)
 number of electron     270.0000000 magnetization     -33.0000000
 augmentation part      270.0000000 magnetization     -33.0000000

 Free energy of the ion-electron system (eV)
  ---------------------------------------------------
  alpha Z        PSCENC =       798.38614055
  Ewald energy   TEWEN  =    -12901.57693327
  -Hartree energ DENC   =     -2855.60785864
  -exchange      EXHF   =         0.00000000
  -V(xc)+E(xc)   XCENC  =      -995.93092985
  PAW double counting   =     12741.82587617   -11476.22345381
  entropy T*S    EENTRO =         0.00493200
  eigenvalues    EBANDS =      1590.55735908
  atomic energy  EATOM  =     12697.67401269
  ---------------------------------------------------
  free energy    TOTEN  =      -400.89085510 eV

  energy without entropy =     -400.89578710  energy(sigma->0) =     -400.89249910


--------------------------------------------------------------------------------------------------------




--------------------------------------- Iteration      1(   6)  ---------------------------------------


    TRIAL :  cpu time   28.3429: real time   28.6757
    CORREC:  cpu time    0.0052: real time    0.0053
    --------------------------------------------
      LOOP:  cpu time   28.3498: real time   28.6851

 eigenvalue-minimisations  : 18240
 total energy-change (2. order) :-0.1998598E+01  (-0.1923082E+01)
 number of electron     270.0000000 magnetization     -33.0000000
 augmentation part      270.0000000 magnetization     -33.0000000

 Free energy of the ion-electron system (eV)
  ---------------------------------------------------
  alpha Z        PSCENC =       798.38614055
  Ewald energy   TEWEN  =    -12901.57693327
  -Hartree energ DENC   =     -2855.60785864
  -exchange      EXHF   =         0.00000000
  -V(xc)+E(xc)   XCENC  =      -995.93092985
  PAW double counting   =     12741.82587617   -11476.22345381
  entropy T*S    EENTRO =        -0.00140287
  eigenvalues    EBANDS =      1588.56509639
  atomic energy  EATOM  =     12697.67401269
  ---------------------------------------------------
  free energy    TOTEN  =      -402.88945265 eV

  energy without entropy =     -402.88804978  energy(sigma->0) =     -402.88898503


--------------------------------------------------------------------------------------------------------




--------------------------------------- Iteration      1(   7)  ---------------------------------------


    TRIAL :  cpu time   28.2547: real time   28.4747
    CORREC:  cpu time    0.0053: real time    0.0062
    --------------------------------------------
      LOOP:  cpu time   28.2607: real time   28.4855

 eigenvalue-minimisations  : 18472
 total energy-change (2. order) :-0.6581771E+00  (-0.6370330E+00)
 number of electron     270.0000000 magnetization     -33.0000000
 augmentation part      270.0000000 magnetization     -33.0000000

 Free energy of the ion-electron system (eV)
  ---------------------------------------------------
  alpha Z        PSCENC =       798.38614055
  Ewald energy   TEWEN  =    -12901.57693327
  -Hartree energ DENC   =     -2855.60785864
  -exchange      EXHF   =         0.00000000
  -V(xc)+E(xc)   XCENC  =      -995.93092985
  PAW double counting   =     12741.82587617   -11476.22345381
  entropy T*S    EENTRO =         0.00005793
  eigenvalues    EBANDS =      1587.90545851
  atomic energy  EATOM  =     12697.67401269
  ---------------------------------------------------
  free energy    TOTEN  =      -403.54762973 eV

  energy without entropy =     -403.54768766  energy(sigma->0) =     -403.54764904


--------------------------------------------------------------------------------------------------------




--------------------------------------- Iteration      1(   8)  ---------------------------------------


    TRIAL :  cpu time   28.1215: real time   28.4468
    CORREC:  cpu time    0.0053: real time    0.0054
    CHARGE:  cpu time    1.1674: real time    1.1674
    --------------------------------------------
      LOOP:  cpu time   29.2958: real time   29.6237

 eigenvalue-minimisations  : 18040
 total energy-change (2. order) :-0.2830115E+00  (-0.2767930E+00)
 number of electron     269.9999995 magnetization     -22.2048291
 augmentation part       64.2394538 magnetization     -12.9577309

 Free energy of the ion-electron system (eV)
  ---------------------------------------------------
  alpha Z        PSCENC =       798.38614055
  Ewald energy   TEWEN  =    -12901.57693327
  -Hartree energ DENC   =     -2855.60785864
  -exchange      EXHF   =         0.00000000
  -V(xc)+E(xc)   XCENC  =      -995.93092985
  PAW double counting   =     12741.82587617   -11476.22345381
  entropy T*S    EENTRO =         0.00266288
  eigenvalues    EBANDS =      1587.61984209
  atomic energy  EATOM  =     12697.67401269
  ---------------------------------------------------
  free energy    TOTEN  =      -403.83064121 eV

  energy without entropy =     -403.83330409  energy(sigma->0) =     -403.83152884


--------------------------------------------------------------------------------------------------------




--------------------------------------- Iteration      1(   9)  ---------------------------------------


    POTLOK:  cpu time    0.3970: real time    0.3971
    SETDIJ:  cpu time    0.4684: real time    0.4684
    TRIAL :  cpu time    9.2242: real time    9.3258
    CORREC:  cpu time    3.5151: real time    3.5274
    CHARGE:  cpu time    1.1523: real time    1.1525
    --------------------------------------------
      LOOP:  cpu time   14.7604: real time   14.8764

 eigenvalue-minimisations  :     0
 total energy-change (2. order) : 0.2983276E+03  (-0.2173751E+03)
 number of electron     269.9999993 magnetization     -22.8058652
 augmentation part       82.5715416 magnetization     -15.1638729

 Free energy of the ion-electron system (eV)
  ---------------------------------------------------
  alpha Z        PSCENC =       798.38614055
  Ewald energy   TEWEN  =    -12901.57693327
  -Hartree energ DENC   =     -1273.95626883
  -exchange      EXHF   =         0.00000000
  -V(xc)+E(xc)   XCENC  =     -1042.00943555
  PAW double counting   =     19177.05046602   -17757.45860656
  entropy T*S    EENTRO =         0.00290513
  eigenvalues    EBANDS =       196.38489735
  atomic energy  EATOM  =     12697.67401269
  ---------------------------------------------------
  free energy    TOTEN  =      -105.50306474 eV

  energy without entropy =     -105.50596987  energy(sigma->0) =     -105.50403312


--------------------------------------------------------------------------------------------------------




--------------------------------------- Iteration      1(  10)  ---------------------------------------


    POTLOK:  cpu time    0.4187: real time    0.4195
    SETDIJ:  cpu time    0.4533: real time    0.4536
    TRIAL :  cpu time    9.1578: real time    9.2809
    CORREC:  cpu time    3.4906: real time    3.5059
    CHARGE:  cpu time    1.1701: real time    1.1704
    --------------------------------------------
      LOOP:  cpu time   14.6918: real time   14.8346

 eigenvalue-minimisations  :     0
 total energy-change (2. order) :-0.2117590E+03  (-0.1235830E+02)
 number of electron     269.9999993 magnetization     -22.6365893
 augmentation part       87.2818959 magnetization     -15.5846370

 Free energy of the ion-electron system (eV)
  ---------------------------------------------------
  alpha Z        PSCENC =       798.38614055
  Ewald energy   TEWEN  =    -12901.57693327
  -Hartree energ DENC   =     -2107.00540237
  -exchange      EXHF   =         0.00000000
  -V(xc)+E(xc)   XCENC  =     -1013.75577702
  PAW double counting   =     20634.54016280   -19396.98943512
  entropy T*S    EENTRO =        -0.01415916
  eigenvalues    EBANDS =       971.46229514
  atomic energy  EATOM  =     12697.67401269
  ---------------------------------------------------
  free energy    TOTEN  =      -317.26203145 eV

  energy without entropy =     -317.24787229  energy(sigma->0) =     -317.25731173


--------------------------------------------------------------------------------------------------------




--------------------------------------- Iteration      1(  11)  ---------------------------------------


    POTLOK:  cpu time    0.3925: real time    0.3926
    SETDIJ:  cpu time    0.4658: real time    0.4658
    TRIAL :  cpu time    9.1719: real time    9.3195
    CORREC:  cpu time    3.4570: real time    3.5081
    CHARGE:  cpu time    1.1613: real time    1.1616
    --------------------------------------------
      LOOP:  cpu time   14.6499: real time   14.8503

 eigenvalue-minimisations  :     0
 total energy-change (2. order) :-0.1242305E+02  (-0.1426186E+02)
 number of electron     269.9999992 magnetization     -21.9683536
 augmentation part       88.6491101 magnetization     -15.3476200

 Free energy of the ion-electron system (eV)
  ---------------------------------------------------
  alpha Z        PSCENC =       798.38614055
  Ewald energy   TEWEN  =    -12901.57693327
  -Hartree energ DENC   =     -2387.83991237
  -exchange      EXHF   =         0.00000000
  -V(xc)+E(xc)   XCENC  =     -1004.29868869
  PAW double counting   =     21753.16059805   -20562.43014891
  entropy T*S    EENTRO =        -0.02153973
  eigenvalues    EBANDS =      1277.25401081
  atomic energy  EATOM  =     12697.67401269
  ---------------------------------------------------
  free energy    TOTEN  =      -329.68508031 eV

  energy without entropy =     -329.66354058  energy(sigma->0) =     -329.67790040


--------------------------------------------------------------------------------------------------------




--------------------------------------- Iteration      1(  12)  ---------------------------------------


    POTLOK:  cpu time    0.3883: real time    0.3958
    SETDIJ:  cpu time    0.4578: real time    0.4579
    TRIAL :  cpu time   10.5326: real time   10.6529
    CORREC:  cpu time    3.4464: real time    3.4606
    CHARGE:  cpu time    1.1678: real time    1.1683
    --------------------------------------------
      LOOP:  cpu time   16.0011: real time   16.1451

 eigenvalue-minimisations  :     0
 total energy-change (2. order) :-0.1414849E+02  (-0.6766146E+01)
 number of electron     269.9999993 magnetization     -21.5195293
 augmentation part       87.2127601 magnetization     -15.0851448

 Free energy of the ion-electron system (eV)
  ---------------------------------------------------
  alpha Z        PSCENC =       798.38614055
  Ewald energy   TEWEN  =    -12901.57693327
  -Hartree energ DENC   =     -2569.64308829
  -exchange      EXHF   =         0.00000000
  -V(xc)+E(xc)   XCENC  =      -999.36407791
  PAW double counting   =     21659.85901496   -20458.62589181
  entropy T*S    EENTRO =        -0.02212314
  eigenvalues    EBANDS =      1429.47879646
  atomic energy  EATOM  =     12697.67401269
  ---------------------------------------------------
  free energy    TOTEN  =      -343.83356635 eV

  energy without entropy =     -343.81144321  energy(sigma->0) =     -343.82619197


--------------------------------------------------------------------------------------------------------




--------------------------------------- Iteration      1(  13)  ---------------------------------------


    POTLOK:  cpu time    0.3928: real time    0.3928
    SETDIJ:  cpu time    0.5116: real time    0.5117
    TRIAL :  cpu time    9.1455: real time    9.2685
    CORREC:  cpu time    3.4811: real time    3.4955
    CHARGE:  cpu time    1.1516: real time    1.1518
    --------------------------------------------
      LOOP:  cpu time   14.6878: real time   14.8263

 eigenvalue-minimisations  :     0
 total energy-change (2. order) :-0.6681460E+01  (-0.1450371E+01)
 number of electron     269.9999993 magnetization     -21.3222249
 augmentation part       85.9178689 magnetization     -14.8611754

 Free energy of the ion-electron system (eV)
  ---------------------------------------------------
  alpha Z        PSCENC =       798.38614055
  Ewald energy   TEWEN  =    -12901.57693327
  -Hartree energ DENC   =     -2544.10669993
  -exchange      EXHF   =         0.00000000
  -V(xc)+E(xc)   XCENC  =     -1001.24691664
  PAW double counting   =     21378.17517344   -20145.53581476
  entropy T*S    EENTRO =        -0.01689986
  eigenvalues    EBANDS =      1367.73813462
  atomic energy  EATOM  =     12697.67401269
  ---------------------------------------------------
  free energy    TOTEN  =      -350.51502644 eV

  energy without entropy =     -350.49812658  energy(sigma->0) =     -350.50939316


--------------------------------------------------------------------------------------------------------




--------------------------------------- Iteration      1(  14)  ---------------------------------------


    POTLOK:  cpu time    0.3917: real time    0.3917
    SETDIJ:  cpu time    0.5152: real time    0.5153
    TRIAL :  cpu time    9.1755: real time    9.2952
    CORREC:  cpu time    3.5045: real time    3.5184
    CHARGE:  cpu time    1.1412: real time    1.1414
    --------------------------------------------
      LOOP:  cpu time   14.7320: real time   14.8659

 eigenvalue-minimisations  :     0
 total energy-change (2. order) :-0.1437614E+01  (-0.1487148E+01)
 number of electron     269.9999993 magnetization     -21.2626489
 augmentation part       85.8283878 magnetization     -14.5445658

 Free energy of the ion-electron system (eV)
  ---------------------------------------------------
  alpha Z        PSCENC =       798.38614055
  Ewald energy   TEWEN  =    -12901.57693327
  -Hartree energ DENC   =     -2478.36317478
  -exchange      EXHF   =         0.00000000
  -V(xc)+E(xc)   XCENC  =     -1003.88113367
  PAW double counting   =     20901.48336528   -19649.46352672
  entropy T*S    EENTRO =        -0.01909732
  eigenvalues    EBANDS =      1283.80550923
  atomic energy  EATOM  =     12697.67401269
  ---------------------------------------------------
  free energy    TOTEN  =      -351.95264055 eV

  energy without entropy =     -351.93354323  energy(sigma->0) =     -351.94627477


--------------------------------------------------------------------------------------------------------




--------------------------------------- Iteration      1(  15)  ---------------------------------------


    POTLOK:  cpu time    0.3927: real time    0.3927
    SETDIJ:  cpu time    0.5302: real time    0.5303
    TRIAL :  cpu time    9.1762: real time    9.3249
    CORREC:  cpu time    3.4502: real time    3.5080
    CHARGE:  cpu time    1.1668: real time    1.1748
    --------------------------------------------
      LOOP:  cpu time   14.7389: real time   14.9552

 eigenvalue-minimisations  :     0
 total energy-change (2. order) :-0.1487904E+01  (-0.7123775E+00)
 number of electron     269.9999992 magnetization     -20.9625120
 augmentation part       86.8254731 magnetization     -14.3772917

 Free energy of the ion-electron system (eV)
  ---------------------------------------------------
  alpha Z        PSCENC =       798.38614055
  Ewald energy   TEWEN  =    -12901.57693327
  -Hartree energ DENC   =     -2455.90490021
  -exchange      EXHF   =         0.00000000
  -V(xc)+E(xc)   XCENC  =     -1005.00363498
  PAW double counting   =     19913.86915519   -18654.62012928
  entropy T*S    EENTRO =        -0.01951834
  eigenvalues    EBANDS =      1253.75484211
  atomic energy  EATOM  =     12697.67401269
  ---------------------------------------------------
  free energy    TOTEN  =      -353.44054452 eV

  energy without entropy =     -353.42102618  energy(sigma->0) =     -353.43403841


--------------------------------------------------------------------------------------------------------




--------------------------------------- Iteration      1(  16)  ---------------------------------------


    POTLOK:  cpu time    0.3938: real time    0.4036
    SETDIJ:  cpu time    1.4138: real time    1.4141
    TRIAL :  cpu time    9.1212: real time    9.1916
    CORREC:  cpu time    3.4693: real time    3.4828
    CHARGE:  cpu time    1.1641: real time    1.1642
    --------------------------------------------
      LOOP:  cpu time   15.5635: real time   15.6585

 eigenvalue-minimisations  :     0
 total energy-change (2. order) :-0.7174396E+00  (-0.3290399E+00)
 number of electron     269.9999992 magnetization     -20.7838050
 augmentation part       87.2976442 magnetization     -14.3114469

 Free energy of the ion-electron system (eV)
  ---------------------------------------------------
  alpha Z        PSCENC =       798.38614055
  Ewald energy   TEWEN  =    -12901.57693327
  -Hartree energ DENC   =     -2496.56239329
  -exchange      EXHF   =         0.00000000
  -V(xc)+E(xc)   XCENC  =     -1003.68404336
  PAW double counting   =     19536.81044093   -18286.02760132
  entropy T*S    EENTRO =        -0.01721210
  eigenvalues    EBANDS =      1300.84191125
  atomic energy  EATOM  =     12697.67401269
  ---------------------------------------------------
  free energy    TOTEN  =      -354.15798415 eV

  energy without entropy =     -354.14077205  energy(sigma->0) =     -354.15224679


--------------------------------------------------------------------------------------------------------




--------------------------------------- Iteration      1(  17)  ---------------------------------------


    POTLOK:  cpu time    0.3926: real time    0.3926
    SETDIJ:  cpu time    0.4530: real time    0.4635
    TRIAL :  cpu time    9.1846: real time    9.2789
    CORREC:  cpu time    3.4788: real time    3.4927
    CHARGE:  cpu time    1.1601: real time    1.1603
    --------------------------------------------
      LOOP:  cpu time   14.6900: real time   14.8105

 eigenvalue-minimisations  :     0
 total energy-change (2. order) :-0.3283993E+00  (-0.2874447E+00)
 number of electron     269.9999992 magnetization     -20.6050194
 augmentation part       87.2682061 magnetization     -14.2778484

 Free energy of the ion-electron system (eV)
  ---------------------------------------------------
  alpha Z        PSCENC =       798.38614055
  Ewald energy   TEWEN  =    -12901.57693327
  -Hartree energ DENC   =     -2515.94578671
  -exchange      EXHF   =         0.00000000
  -V(xc)+E(xc)   XCENC  =     -1002.83685739
  PAW double counting   =     19417.06845984   -18171.19933312
  entropy T*S    EENTRO =        -0.02151006
  eigenvalues    EBANDS =      1323.96112603
  atomic energy  EATOM  =     12697.67401269
  ---------------------------------------------------
  free energy    TOTEN  =      -354.48638348 eV

  energy without entropy =     -354.46487342  energy(sigma->0) =     -354.47921346


--------------------------------------------------------------------------------------------------------




--------------------------------------- Iteration      1(  18)  ---------------------------------------


    POTLOK:  cpu time    0.3920: real time    0.3920
    SETDIJ:  cpu time    0.4702: real time    0.4703
    TRIAL :  cpu time    9.1887: real time    9.3056
    CORREC:  cpu time    3.4820: real time    3.4975
    CHARGE:  cpu time    1.1484: real time    1.1486
    --------------------------------------------
      LOOP:  cpu time   14.6944: real time   14.8304

 eigenvalue-minimisations  :     0
 total energy-change (2. order) :-0.2888222E+00  (-0.2220707E+00)
 number of electron     269.9999992 magnetization     -20.4675448
 augmentation part       86.8371144 magnetization     -14.2768396

 Free energy of the ion-electron system (eV)
  ---------------------------------------------------
  alpha Z        PSCENC =       798.38614055
  Ewald energy   TEWEN  =    -12901.57693327
  -Hartree energ DENC   =     -2510.50770109
  -exchange      EXHF   =         0.00000000
  -V(xc)+E(xc)   XCENC  =     -1002.83655211
  PAW double counting   =     19329.42943655   -18083.36576474
  entropy T*S    EENTRO =        -0.02052368
  eigenvalues    EBANDS =      1318.04366583
  atomic energy  EATOM  =     12697.67401269
  ---------------------------------------------------
  free energy    TOTEN  =      -354.77520565 eV

  energy without entropy =     -354.75468198  energy(sigma->0) =     -354.76836443


--------------------------------------------------------------------------------------------------------




--------------------------------------- Iteration      1(  19)  ---------------------------------------


    POTLOK:  cpu time    0.3924: real time    0.3925
    SETDIJ:  cpu time    0.4976: real time    0.4976
    TRIAL :  cpu time    9.1571: real time    9.3021
    CORREC:  cpu time    3.4503: real time    3.5145
    CHARGE:  cpu time    1.1587: real time    1.1672
    --------------------------------------------
      LOOP:  cpu time   14.7065: real time   14.9258

 eigenvalue-minimisations  :     0
 total energy-change (2. order) :-0.2207114E+00  (-0.1739903E+00)
 number of electron     269.9999992 magnetization     -20.4540690
 augmentation part       86.6446979 magnetization     -14.3747249

 Free energy of the ion-electron system (eV)
  ---------------------------------------------------
  alpha Z        PSCENC =       798.38614055
  Ewald energy   TEWEN  =    -12901.57693327
  -Hartree energ DENC   =     -2486.84918723
  -exchange      EXHF   =         0.00000000
  -V(xc)+E(xc)   XCENC  =     -1003.47834431
  PAW double counting   =     19272.97510413   -18022.47447144
  entropy T*S    EENTRO =        -0.02298456
  eigenvalues    EBANDS =      1290.36828548
  atomic energy  EATOM  =     12697.67401269
  ---------------------------------------------------
  free energy    TOTEN  =      -354.99591709 eV

  energy without entropy =     -354.97293253  energy(sigma->0) =     -354.98825557


--------------------------------------------------------------------------------------------------------




--------------------------------------- Iteration      1(  20)  ---------------------------------------


    POTLOK:  cpu time    0.4007: real time    0.4100
    SETDIJ:  cpu time    1.2795: real time    1.2817
    TRIAL :  cpu time    9.1131: real time    9.1992
    CORREC:  cpu time    3.4706: real time    3.4839
    CHARGE:  cpu time    1.1564: real time    1.1567
    --------------------------------------------
      LOOP:  cpu time   15.4216: real time   15.5339

 eigenvalue-minimisations  :     0
 total energy-change (2. order) :-0.1739852E+00  (-0.1840789E+00)
 number of electron     269.9999992 magnetization     -20.3788797
 augmentation part       86.8944307 magnetization     -14.4282463

 Free energy of the ion-electron system (eV)
  ---------------------------------------------------
  alpha Z        PSCENC =       798.38614055
  Ewald energy   TEWEN  =    -12901.57693327
  -Hartree energ DENC   =     -2480.64174079
  -exchange      EXHF   =         0.00000000
  -V(xc)+E(xc)   XCENC  =     -1003.52788059
  PAW double counting   =     19282.16199909   -18030.24730642
  entropy T*S    EENTRO =        -0.02368939
  eigenvalues    EBANDS =      1282.62479103
  atomic energy  EATOM  =     12697.67401269
  ---------------------------------------------------
  free energy    TOTEN  =      -355.16990227 eV

  energy without entropy =     -355.14621289  energy(sigma->0) =     -355.16200581


--------------------------------------------------------------------------------------------------------




--------------------------------------- Iteration      1(  21)  ---------------------------------------


    POTLOK:  cpu time    0.4137: real time    0.4137
    SETDIJ:  cpu time    0.4436: real time    0.4559
    TRIAL :  cpu time    9.1710: real time    9.2632
    CORREC:  cpu time    3.5008: real time    3.5114
    CHARGE:  cpu time    1.1606: real time    1.1608
    --------------------------------------------
      LOOP:  cpu time   14.7113: real time   14.8268

 eigenvalue-minimisations  :     0
 total energy-change (2. order) :-0.1840078E+00  (-0.1062302E+00)
 number of electron     269.9999992 magnetization     -20.3304597
 augmentation part       86.9381638 magnetization     -14.3861975

 Free energy of the ion-electron system (eV)
  ---------------------------------------------------
  alpha Z        PSCENC =       798.38614055
  Ewald energy   TEWEN  =    -12901.57693327
  -Hartree energ DENC   =     -2500.33793845
  -exchange      EXHF   =         0.00000000
  -V(xc)+E(xc)   XCENC  =     -1002.72350344
  PAW double counting   =     19353.68169500   -18105.31447198
  entropy T*S    EENTRO =        -0.02528850
  eigenvalues    EBANDS =      1304.88077825
  atomic energy  EATOM  =     12697.67401269
  ---------------------------------------------------
  free energy    TOTEN  =      -355.35391004 eV

  energy without entropy =     -355.32862153  energy(sigma->0) =     -355.34548053


--------------------------------------------------------------------------------------------------------




--------------------------------------- Iteration      1(  22)  ---------------------------------------


    POTLOK:  cpu time    0.3915: real time    0.3916
    SETDIJ:  cpu time    0.4589: real time    0.4589
    TRIAL :  cpu time    9.1979: real time    9.3189
    CORREC:  cpu time    3.4658: real time    3.4786
    CHARGE:  cpu time    1.1667: real time    1.1668
    --------------------------------------------
      LOOP:  cpu time   14.6886: real time   14.8243

 eigenvalue-minimisations  :     0
 total energy-change (2. order) :-0.1063695E+00  (-0.6304810E-01)
 number of electron     269.9999992 magnetization     -20.3528184
 augmentation part       86.8223547 magnetization     -14.3545628

 Free energy of the ion-electron system (eV)
  ---------------------------------------------------
  alpha Z        PSCENC =       798.38614055
  Ewald energy   TEWEN  =    -12901.57693327
  -Hartree energ DENC   =     -2506.22172983
  -exchange      EXHF   =         0.00000000
  -V(xc)+E(xc)   XCENC  =     -1002.49251003
  PAW double counting   =     19384.64236910   -18136.94344733
  entropy T*S    EENTRO =        -0.02362239
  eigenvalues    EBANDS =      1311.09710704
  atomic energy  EATOM  =     12697.67401269
  ---------------------------------------------------
  free energy    TOTEN  =      -355.46027958 eV

  energy without entropy =     -355.43665719  energy(sigma->0) =     -355.45240545


--------------------------------------------------------------------------------------------------------




--------------------------------------- Iteration      1(  23)  ---------------------------------------


    POTLOK:  cpu time    0.3920: real time    0.3921
    SETDIJ:  cpu time    0.4615: real time    0.4615
    TRIAL :  cpu time    9.2026: real time    9.3726
    CORREC:  cpu time    3.4279: real time    3.5400
    CHARGE:  cpu time    1.1323: real time    1.1596
    --------------------------------------------
      LOOP:  cpu time   14.6503: real time   14.9600

 eigenvalue-minimisations  :     0
 total energy-change (2. order) :-0.6239908E-01  (-0.8668191E-01)
 number of electron     269.9999992 magnetization     -20.4476114
 augmentation part       86.6466562 magnetization     -14.3726023

 Free energy of the ion-electron system (eV)
  ---------------------------------------------------
  alpha Z        PSCENC =       798.38614055
  Ewald energy   TEWEN  =    -12901.57693327
  -Hartree energ DENC   =     -2501.35464848
  -exchange      EXHF   =         0.00000000
  -V(xc)+E(xc)   XCENC  =     -1002.61689475
  PAW double counting   =     19382.24960120   -18133.10991227
  entropy T*S    EENTRO =        -0.02528976
  eigenvalues    EBANDS =      1304.84957807
  atomic energy  EATOM  =     12697.67401269
  ---------------------------------------------------
  free energy    TOTEN  =      -355.52267866 eV

  energy without entropy =     -355.49738889  energy(sigma->0) =     -355.51424873


--------------------------------------------------------------------------------------------------------




--------------------------------------- Iteration      1(  24)  ---------------------------------------


    POTLOK:  cpu time    0.3959: real time    0.3960
    SETDIJ:  cpu time    0.8390: real time    0.8706
    TRIAL :  cpu time    9.1419: real time    9.2131
    CORREC:  cpu time    3.4652: real time    3.4660
    CHARGE:  cpu time    1.1655: real time    1.1658
    --------------------------------------------
      LOOP:  cpu time   15.5486: real time   15.6543

 eigenvalue-minimisations  :     0
 total energy-change (2. order) :-0.8672255E-01  (-0.1471992E+00)
 number of electron     269.9999992 magnetization     -20.8002599
 augmentation part       86.7317494 magnetization     -14.6053800

 Free energy of the ion-electron system (eV)
  ---------------------------------------------------
  alpha Z        PSCENC =       798.38614055
  Ewald energy   TEWEN  =    -12901.57693327
  -Hartree energ DENC   =     -2492.19314644
  -exchange      EXHF   =         0.00000000
  -V(xc)+E(xc)   XCENC  =     -1002.81123613
  PAW double counting   =     19369.15166812   -18117.62225594
  entropy T*S    EENTRO =        -0.02388866
  eigenvalues    EBANDS =      1293.40763899
  atomic energy  EATOM  =     12697.67401269
  ---------------------------------------------------
  free energy    TOTEN  =      -355.60940121 eV

  energy without entropy =     -355.58551255  energy(sigma->0) =     -355.60143832


--------------------------------------------------------------------------------------------------------




[...]
   45       -0.018  -0.018  -2.330  -2.366
   46        0.021   0.026   2.451   2.499
   47       -0.016  -0.022  -2.301  -2.339
   48       -0.016  -0.022  -2.299  -2.337
   49       -0.025  -0.021  -1.687  -1.733
   50       -0.020  -0.014  -2.329  -2.364
   51       -0.020  -0.014  -2.329  -2.364
   52        0.021   0.026   2.453   2.501
   53       -0.015  -0.022  -2.296  -2.334
   54       -0.016  -0.022  -2.301  -2.339
--------------------------------------------------
tot          0.030   0.198 -24.464 -24.236
 
    FORLOC:  cpu time    0.0598: real time    0.0598
    FORNL :  cpu time   15.5847: real time   15.6282
    STRESS:  cpu time   24.0076: real time   24.3346
    FORCOR:  cpu time    0.4379: real time    0.4379
    OFIELD:  cpu time    0.0021: real time    0.0021

  FORCE on cell =-STRESS in cart. coord.  units (eV):
  Direction    XX          YY          ZZ          XY          YZ          ZX
  --------------------------------------------------------------------------------------
  Alpha Z   798.38614   798.38614   798.38614
  Ewald   -4053.61603 -4053.61603 -4794.40593    -0.00000    -0.00000    -0.00000
  Hartree  1085.30040  1085.30040   331.83313    -0.00000    -0.00000    -0.00000
  E(xc)   -1141.50292 -1141.50292 -1139.53441    -0.00000    -0.00000     0.00000
  Local     367.59582   367.59582  1907.69605    -0.00000     0.00000     0.00000
  n-local  -172.01963  -169.73953  -176.47861    -0.09778    -0.12644    -0.16740
  augment   784.54852   784.54852   766.51186     0.00000     0.00001     0.00001
  Kinetic  2329.21710  2344.76522  2306.73107    -1.48289    -1.82637    -2.14685
  Fock        0.00000     0.00000     0.00000     0.00000     0.00000     0.00000
  -------------------------------------------------------------------------------------
  Total       6.82351     6.82351     0.73929     0.00000    -0.00000     0.00000
  in kB      15.39977    15.39977     1.66847     0.00000    -0.00000     0.00000
  external pressure =       10.82 kB  Pullay stress =        0.00 kB


 VOLUME and BASIS-vectors are now :
 -----------------------------------------------------------------------------
  energy-cutoff  :      404.80
  volume of cell :      709.91
      direct lattice vectors                 reciprocal lattice vectors
     8.250148166  0.000000000  0.000000000     0.121209944  0.000000000  0.000000000
     0.000000000  8.250148166  0.000000000     0.000000000  0.121209944  0.000000000
     0.000000000  0.000000000 10.429911392     0.000000000  0.000000000  0.095878092

  length of vectors
     8.250148166  8.250148166 10.429911392     0.121209944  0.121209944  0.095878092


 FORCES acting on ions:
    Electron-Ion                     Ewald-Force                    Non-Local-Force
 -----------------------------------------------------------------------------------------------
   -.464E-01 0.112E-08 0.637E-01   -.239E-08 -.239E-08 -.210E-08   0.994E-02 0.000E+00 -.501E-01
   -.464E-01 0.112E-08 -.637E-01   -.239E-08 -.239E-08 0.171E-08   0.994E-02 -.217E-18 0.501E-01
   -.734E-02 0.114E-08 -.478E-06   -.239E-08 -.239E-08 0.861E-08   -.146E-03 -.108E-18 0.000E+00
   -.893E-02 0.893E-02 0.112E+00   -.239E-08 -.802E-09 -.210E-08   -.857E-01 0.857E-01 -.665E-01
   -.893E-02 0.893E-02 -.112E+00   -.239E-08 -.802E-09 0.171E-08   -.857E-01 0.857E-01 0.665E-01
   -.331E-02 0.331E-02 -.480E-06   -.239E-08 -.802E-09 0.861E-08   0.291E-02 -.291E-02 0.000E+00
   -.893E-02 -.893E-02 0.112E+00   -.239E-08 0.631E-08 -.210E-08   -.857E-01 -.857E-01 -.665E-01
   -.893E-02 -.893E-02 -.112E+00   -.239E-08 0.631E-08 0.171E-08   -.857E-01 -.857E-01 0.665E-01
   -.331E-02 -.331E-02 -.480E-06   -.239E-08 0.631E-08 0.861E-08   0.291E-02 0.291E-02 0.542E-19
   0.373E-09 0.114E-08 0.699E-01   -.802E-09 -.239E-08 -.210E-08   -.115E-18 -.271E-19 -.655E-02
   0.373E-09 0.114E-08 -.699E-01   -.802E-09 -.239E-08 0.171E-08   -.203E-19 0.108E-18 0.655E-02
   0.373E-09 0.115E-08 -.477E-06   -.803E-09 -.239E-08 0.861E-08   -.678E-20 -.136E-19 0.000E+00
   0.373E-09 0.464E-01 0.637E-01   -.802E-09 -.802E-09 -.210E-08   -.542E-19 -.994E-02 -.501E-01
   0.373E-09 0.464E-01 -.637E-01   -.802E-09 -.802E-09 0.171E-08   -.108E-18 -.994E-02 0.501E-01
   0.373E-09 0.734E-02 -.478E-06   -.803E-09 -.802E-09 0.861E-08   -.678E-20 0.146E-03 0.108E-18
   0.373E-09 -.464E-01 0.637E-01   -.802E-09 0.631E-08 -.210E-08   -.325E-18 0.994E-02 -.501E-01
   0.373E-09 -.464E-01 -.637E-01   -.802E-09 0.631E-08 0.171E-08   -.108E-18 0.994E-02 0.501E-01
   0.373E-09 -.734E-02 -.478E-06   -.803E-09 0.631E-08 0.861E-08   0.678E-19 -.146E-03 -.108E-18
   0.464E-01 0.112E-08 0.637E-01   0.631E-08 -.239E-08 -.210E-08   -.994E-02 -.217E-18 -.501E-01
   0.464E-01 0.112E-08 -.637E-01   0.631E-08 -.239E-08 0.171E-08   -.994E-02 -.542E-19 0.501E-01
   0.734E-02 0.114E-08 -.478E-06   0.631E-08 -.239E-08 0.861E-08   0.146E-03 0.108E-18 0.000E+00
   0.893E-02 0.893E-02 0.112E+00   0.631E-08 -.802E-09 -.210E-08   0.857E-01 0.857E-01 -.665E-01
   0.893E-02 0.893E-02 -.112E+00   0.631E-08 -.802E-09 0.171E-08   0.857E-01 0.857E-01 0.665E-01
   0.331E-02 0.331E-02 -.480E-06   0.631E-08 -.802E-09 0.861E-08   -.291E-02 -.291E-02 -.271E-18
   0.893E-02 -.893E-02 0.112E+00   0.631E-08 0.631E-08 -.210E-08   0.857E-01 -.857E-01 -.665E-01
   0.893E-02 -.893E-02 -.112E+00   0.631E-08 0.631E-08 0.171E-08   0.857E-01 -.857E-01 0.665E-01
   0.331E-02 -.331E-02 -.480E-06   0.631E-08 0.631E-08 0.861E-08   -.291E-02 0.291E-02 -.108E-18
   -.160E+00 0.160E+00 0.243E-05   -.169E-07 -.169E-07 -.180E-07   0.113E+00 -.113E+00 0.867E-18
   -.599E-01 0.599E-01 -.864E-01   -.169E-07 -.169E-07 -.170E-08   0.306E-01 -.306E-01 -.423E-02
   -.599E-01 0.599E-01 0.864E-01   -.169E-07 -.169E-07 0.115E-07   0.306E-01 -.306E-01 0.423E-02
   0.157E+00 -.131E-08 0.246E-05   -.169E-07 0.802E-09 -.180E-07   -.124E+00 0.000E+00 0.434E-18
   0.331E-02 -.135E-08 -.165E+00   -.169E-07 0.802E-09 -.170E-08   -.220E-01 0.434E-18 0.148E+00
   0.331E-02 -.135E-08 0.165E+00   -.169E-07 0.802E-09 0.115E-07   -.220E-01 -.108E-17 -.148E+00
   -.160E+00 -.160E+00 0.243E-05   -.169E-07 0.130E-07 -.180E-07   0.113E+00 0.113E+00 -.195E-17
   -.599E-01 -.599E-01 -.864E-01   -.169E-07 0.130E-07 -.170E-08   0.306E-01 0.306E-01 -.423E-02
   -.599E-01 -.599E-01 0.864E-01   -.169E-07 0.130E-07 0.115E-07   0.306E-01 0.306E-01 0.423E-02
   0.160E+00 0.160E+00 0.243E-05   0.802E-09 -.169E-07 -.180E-07   -.113E+00 -.113E+00 0.651E-18
   0.599E-01 0.599E-01 -.864E-01   0.802E-09 -.169E-07 -.170E-08   -.306E-01 -.306E-01 -.423E-02
   0.599E-01 0.599E-01 0.864E-01   0.802E-09 -.169E-07 0.115E-07   -.306E-01 -.306E-01 0.423E-02
   -.157E+00 -.131E-08 0.246E-05   0.802E-09 0.802E-09 -.180E-07   0.124E+00 0.000E+00 -.434E-18
   -.331E-02 -.135E-08 -.165E+00   0.802E-09 0.802E-09 -.170E-08   0.220E-01 -.217E-18 0.148E+00
   -.331E-02 -.135E-08 0.165E+00   0.802E-09 0.802E-09 0.115E-07   0.220E-01 -.434E-18 -.148E+00
   0.160E+00 -.160E+00 0.243E-05   0.802E-09 0.130E-07 -.180E-07   -.113E+00 0.113E+00 0.867E-18
   0.599E-01 -.599E-01 -.864E-01   0.802E-09 0.130E-07 -.170E-08   -.306E-01 0.306E-01 -.423E-02
   0.599E-01 -.599E-01 0.864E-01   0.802E-09 0.130E-07 0.115E-07   -.306E-01 0.306E-01 0.423E-02
   -.605E-08 -.157E+00 0.246E-05   0.130E-07 -.169E-07 -.180E-07   -.434E-18 0.124E+00 0.434E-18
   -.605E-08 -.331E-02 -.165E+00   0.130E-07 -.169E-07 -.170E-08   -.163E-18 0.220E-01 0.148E+00
   -.605E-08 -.331E-02 0.165E+00   0.130E-07 -.169E-07 0.115E-07   -.325E-18 0.220E-01 -.148E+00
   -.605E-08 -.151E-08 0.252E-05   0.130E-07 0.802E-09 -.180E-07   0.000E+00 0.000E+00 0.000E+00
   -.605E-08 -.140E-08 -.287E+00   0.130E-07 0.802E-09 -.170E-08   0.000E+00 -.542E-19 0.124E+00
   -.605E-08 -.140E-08 0.287E+00   0.130E-07 0.802E-09 0.115E-07   0.000E+00 -.163E-18 -.124E+00
   -.605E-08 0.157E+00 0.246E-05   0.130E-07 0.130E-07 -.180E-07   0.434E-18 -.124E+00 -.434E-18
   -.605E-08 0.331E-02 -.165E+00   0.130E-07 0.130E-07 -.170E-08   0.000E+00 -.220E-01 0.148E+00
   -.605E-08 0.331E-02 0.165E+00   0.130E-07 0.130E-07 0.115E-07   -.718E-18 -.220E-01 -.148E+00
 -----------------------------------------------------------------------------------------------
   -.360E-07 -.481E-07 0.146E-04   -.614E-13 -.142E-13 0.128E-13   -.949E-16 -.555E-16 -.278E-16
 
 
 POSITION                                       TOTAL-FORCE (eV/Angst)
 -----------------------------------------------------------------------------------
      0.00000      0.00000      0.00000        -0.038057     -0.000000      0.018309
      0.00000      0.00000      3.47664        -0.038057     -0.000000     -0.018309
      0.00000      0.00000      6.95327        -0.007772     -0.000000     -0.000000
      0.00000      2.75005      0.00000        -0.087916      0.087916      0.052593
      0.00000      2.75005      3.47664        -0.087916      0.087916     -0.052593
      0.00000      2.75005      6.95327        -0.000349      0.000349     -0.000000
      0.00000      5.50010      0.00000        -0.087916     -0.087916      0.052593
      0.00000      5.50010      3.47664        -0.087916     -0.087916     -0.052593
      0.00000      5.50010      6.95327        -0.000349     -0.000349     -0.000000
      2.75005      0.00000      0.00000        -0.000000     -0.000000      0.064749
      2.75005      0.00000      3.47664        -0.000000     -0.000000     -0.064749
      2.75005      0.00000      6.95327        -0.000000     -0.000000     -0.000000
      2.75005      2.75005      0.00000        -0.000000      0.038057      0.018309
      2.75005      2.75005      3.47664        -0.000000      0.038057     -0.018309
      2.75005      2.75005      6.95327        -0.000000      0.007772     -0.000000
      2.75005      5.50010      0.00000         0.000000     -0.038057      0.018309
      2.75005      5.50010      3.47664        -0.000000     -0.038057     -0.018309
      2.75005      5.50010      6.95327        -0.000000     -0.007772     -0.000000
      5.50010      0.00000      0.00000         0.038057     -0.000000      0.018309
      5.50010      0.00000      3.47664         0.038057     -0.000000     -0.018309
      5.50010      0.00000      6.95327         0.007772     -0.000000     -0.000000
      5.50010      2.75005      0.00000         0.087916      0.087916      0.052593
      5.50010      2.75005      3.47664         0.087916      0.087916     -0.052593
      5.50010      2.75005      6.95327         0.000349      0.000349     -0.000000
      5.50010      5.50010      0.00000         0.087916     -0.087916      0.052593
      5.50010      5.50010      3.47664         0.087916     -0.087916     -0.052593
      5.50010      5.50010      6.95327         0.000349     -0.000349     -0.000000
      1.37502      1.37502      1.73832        -0.049935      0.049935     -0.000000
      1.37502      1.37502      5.21496        -0.028979      0.028979     -0.085750
      1.37502      1.37502      8.69159        -0.028979      0.028979      0.085750
      1.37502      4.12507      1.73832         0.040414     -0.000000     -0.000000
      1.37502      4.12507      5.21496        -0.019153     -0.000000     -0.015153
      1.37502      4.12507      8.69159        -0.019153     -0.000000      0.015153
      1.37502      6.87512      1.73832        -0.049935     -0.049935     -0.000000
      1.37502      6.87512      5.21496        -0.028979     -0.028979     -0.085750
      1.37502      6.87512      8.69159        -0.028979     -0.028979      0.085750
      4.12507      1.37502      1.73832         0.049935      0.049935     -0.000000
      4.12507      1.37502      5.21496         0.028979      0.028979     -0.085750
      4.12507      1.37502      8.69159         0.028979      0.028979      0.085750
      4.12507      4.12507      1.73832        -0.040414     -0.000000     -0.000000
      4.12507      4.12507      5.21496         0.019153     -0.000000     -0.015153
      4.12507      4.12507      8.69159         0.019153     -0.000000      0.015153
      4.12507      6.87512      1.73832         0.049935     -0.049935     -0.000000
      4.12507      6.87512      5.21496         0.028979     -0.028979     -0.085750
      4.12507      6.87512      8.69159         0.028979     -0.028979      0.085750
      6.87512      1.37502      1.73832         0.000000     -0.040414     -0.000000
      6.87512      1.37502      5.21496         0.000000      0.019153     -0.015153
      6.87512      1.37502      8.69159         0.000000      0.019153      0.015153
      6.87512      4.12507      1.73832         0.000000     -0.000000     -0.000000
      6.87512      4.12507      5.21496         0.000000     -0.000000     -0.157121
      6.87512      4.12507      8.69159        -0.000000     -0.000000      0.157121
      6.87512      6.87512      1.73832        -0.000000      0.040414     -0.000000
      6.87512      6.87512      5.21496         0.000000     -0.019153     -0.015153
      6.87512      6.87512      8.69159        -0.000000     -0.019153      0.015153
 -----------------------------------------------------------------------------------
    total drift:                               -0.000000     -0.000000      0.000015


--------------------------------------------------------------------------------------------------------



  FREE ENERGIE OF THE ION-ELECTRON SYSTEM (eV)
  ---------------------------------------------------
  free  energy   TOTEN  =      -356.89513823 eV

  energy  without entropy=     -356.89550140  energy(sigma->0) =     -356.89525929
 


--------------------------------------------------------------------------------------------------------


    POTLOK:  cpu time    1.5338: real time    1.5747


--------------------------------------------------------------------------------------------------------


     LOOP+:  cpu time 1618.6564: real time 1635.8823
    4ORBIT:  cpu time    0.0000: real time    0.0000
 


 total charge     
 
# of ion       s       p       d       tot
------------------------------------------
    1        0.405   0.426   0.000   0.832
    2        0.405   0.426   0.000   0.832
    3        0.404   0.429   0.000   0.833
    4        0.405   0.428   0.000   0.833
    5        0.405   0.428   0.000   0.833
    6        0.404   0.428   0.000   0.832
    7        0.405   0.427   0.000   0.832
    8        0.405   0.428   0.000   0.833
    9        0.404   0.429   0.000   0.833
   10        0.406   0.426   0.000   0.832
   11        0.406   0.426   0.000   0.832
   12        0.404   0.430   0.000   0.834
   13        0.406   0.427   0.000   0.832
   14        0.406   0.427   0.000   0.832
   15        0.404   0.429   0.000   0.833
   16        0.405   0.427   0.000   0.832
   17        0.406   0.427   0.000   0.832
   18        0.404   0.429   0.000   0.833
   19        0.405   0.426   0.000   0.832
   20        0.405   0.426   0.000   0.832
   21        0.404   0.429   0.000   0.833
   22        0.405   0.428   0.000   0.833
   23        0.405   0.427   0.000   0.833
   24        0.404   0.429   0.000   0.833
   25        0.405   0.428   0.000   0.833
   26        0.405   0.428   0.000   0.833
   27        0.404   0.428   0.000   0.832
   28        0.334   0.353   5.124   5.812
   29        0.332   0.350   5.142   5.824
   30        0.332   0.350   5.141   5.824
   31        0.336   0.353   5.150   5.839
   32        0.331   0.352   5.136   5.820
   33        0.331   0.352   5.127   5.810
   34        0.335   0.353   5.139   5.827
   35        0.333   0.350   5.136   5.819
   36        0.332   0.350   5.136   5.819
   37        0.335   0.353   5.140   5.827
   38        0.332   0.350   5.137   5.819
   39        0.333   0.351   5.135   5.819
   40        0.336   0.353   5.154   5.844
   41        0.331   0.352   5.128   5.812
   42        0.331   0.352   5.138   5.821
   43        0.334   0.353   5.130   5.817
   44        0.332   0.350   5.139   5.821
   45        0.332   0.350   5.140   5.822
   46        0.336   0.357   5.092   5.786
   47        0.332   0.352   5.137   5.820
   48        0.332   0.352   5.147   5.831
   49        0.332   0.347   5.168   5.847
   50        0.332   0.347   5.145   5.824
   51        0.332   0.347   5.145   5.824
   52        0.336   0.357   5.090   5.784
   53        0.332   0.352   5.144   5.828
   54        0.332   0.352   5.137   5.820
--------------------------------------------------
tot         19.926  21.035 138.677 179.638
 


 magnetization (x)
 
# of ion       s       p       d       tot
------------------------------------------
    1        0.001   0.002   0.000   0.002
    2        0.001   0.001   0.000   0.002
    3        0.022   0.037   0.000   0.059
    4        0.004   0.007   0.000   0.011
    5        0.004   0.007   0.000   0.011
    6        0.022   0.039   0.000   0.061
    7        0.004   0.007   0.000   0.011
    8        0.004   0.008   0.000   0.011
    9        0.022   0.039   0.000   0.061
   10       -0.001   0.000   0.000  -0.001
   11       -0.001   0.000   0.000  -0.001
   12        0.022   0.039   0.000   0.061
   13        0.000   0.000   0.000   0.000
   14        0.000   0.000   0.000   0.001
   15        0.022   0.037   0.000   0.059
   16        0.000   0.000   0.000   0.001
   17        0.000   0.000   0.000   0.001
   18        0.022   0.037   0.000   0.059
   19        0.001   0.002   0.000   0.002
   20        0.001   0.002   0.000   0.002
   21        0.022   0.037   0.000   0.059
   22        0.004   0.008   0.000   0.011
   23        0.004   0.007   0.000   0.011
   24        0.022   0.039   0.000   0.061
   25        0.004   0.008   0.000   0.011
   26        0.004   0.007   0.000   0.011
   27        0.022   0.039   0.000   0.061
   28        0.012   0.013   2.318   2.342
   29       -0.018  -0.018  -2.332  -2.368
   30       -0.018  -0.018  -2.333  -2.369
   31        0.023   0.025   2.427   2.475
   32       -0.015  -0.021  -2.311  -2.348
   33       -0.015  -0.021  -2.315  -2.352
   34        0.012   0.013   2.311   2.336
   35       -0.018  -0.018  -2.338  -2.373
   36       -0.018  -0.018  -2.334  -2.370
   37        0.012   0.013   2.310   2.335
   38       -0.018  -0.018  -2.335  -2.371
   39       -0.018  -0.018  -2.338  -2.373
   40        0.023   0.025   2.423   2.470
   41       -0.016  -0.022  -2.316  -2.353
   42       -0.015  -0.022  -2.313  -2.350
   43        0.012   0.013   2.312   2.337
   44       -0.018  -0.018  -2.331  -2.366
   45       -0.018  -0.018  -2.330  -2.366
   46        0.021   0.026   2.451   2.499
   47       -0.016  -0.022  -2.301  -2.339
   48       -0.016  -0.022  -2.299  -2.337
   49       -0.025  -0.021  -1.687  -1.733
   50       -0.020  -0.014  -2.329  -2.364
   51       -0.020  -0.014  -2.329  -2.364
   52        0.021   0.026   2.453   2.501
   53       -0.015  -0.022  -2.296  -2.334
   54       -0.016  -0.022  -2.301  -2.339
--------------------------------------------------
tot          0.030   0.198 -24.464 -24.236
 

 total amount of memory used by VASP MPI-rank0   548339. kBytes
=======================================================================

   base      :      30000. kBytes
   nonl-proj :      19946. kBytes
   fftplans  :      31580. kBytes
   grid      :      21385. kBytes
   one-center:        435. kBytes
   wavefun   :     444993. kBytes
 
  
  
 General timing and accounting informations for this job:
 ========================================================
  
                  Total CPU time used (sec):     1638.419
                            User time (sec):     1613.686
                          System time (sec):       24.733
                         Elapsed time (sec):     1657.849
  
                   Maximum memory used (kb):      694452.
                   Average memory used (kb):           0.
  
                          Minor page faults:       922337
                          Major page faults:           20
                 Voluntary context switches:         3219
