   36   36    1    2
  0.1314651E+02  0.8250148E-09  0.8250148E-09  0.6953274E-09  0.2000000E-15
  1.000000000000000E-004
  CAR 
 AlMn_pv                                 
    180     52    110
 
  0.0000000E+00  0.0000000E+00  0.0000000E+00  0.6666667E-02
    1       -2.517308     -2.522238   1.000000   1.000000
    2       -0.378698     -0.370876   1.000000   1.000000
    3       -0.328329     -0.346605   1.000000   1.000000
    4       -0.320880     -0.323472   1.000000   1.000000
    5       -0.307145     -0.316311   1.000000   1.000000
    6       -0.119323     -0.124276   1.000000   1.000000
    7        1.367912      1.348032   1.000000   1.000000
    8        1.381585      1.374238   1.000000   1.000000
    9        1.392843      1.390302   1.000000   1.000000
   10        1.417524      1.400998   1.000000   1.000000
   11        1.433776      1.421617   1.000000   1.000000
   12        1.571575      1.557178   1.000000   1.000000
   13        1.576374      1.559775   1.000000   1.000000
   14        1.612464      1.618291   1.000000   1.000000
   15        1.617736      1.619696   1.000000   1.000000
   16        2.752499      2.737743   1.000000   1.000000
   17        2.756540      2.741667   1.000000   1.000000
   18        2.834265      2.800187   1.000000   1.000000
   19        2.842994      2.805745   1.000000   1.000000
   20        3.445674      3.487418   1.000000   1.000000
   21        3.559671      3.520305   1.000000   1.000000
   22        3.584890      3.574362   1.000000   1.000000
   23        3.621955      3.613814   1.000000   1.000000
   24        4.118658      4.067125   1.000000   1.000000
   25        4.207083      4.181200   1.000000   1.000000
   26        4.335272      4.378829   1.000000   1.000000
   27        4.504758      4.500043   1.000000   1.000000
   28        4.525872      4.539553   1.000000   1.000000
   29        4.573662      4.557109   1.000000   1.000000
   30        4.584384      4.643136   1.000000   1.000000
   31        4.673297      4.670246   1.000000   1.000000
   32        4.762470      4.674800   1.000000   1.000000
   33        4.786818      4.742872   1.000000   1.000000
   34        4.809318      4.755492   1.000000   1.000000
   35        4.828993      4.819650   1.000000   1.000000
   36        4.905627      4.872537   1.000000   1.000000
   37        4.928399      4.903207   1.000000   1.000000
   38        4.964180      4.944486   1.000000   1.000000
   39        5.187232      5.012343   1.000000   1.000000
   40        5.238773      5.017280   1.000000   1.000000
   41        5.288180      5.247136   1.000000   1.000000
   42        5.338636      5.256145   1.000000   1.000000
   43        5.365829      5.278064   1.000000   1.000000
   44        5.379204      5.391707   1.000000   1.000000
   45        5.388008      5.433021   1.000000   1.000000
   46        5.456623      5.436566   1.000000   1.000000
   47        5.546084      5.497748   1.000000   1.000000
   48        5.547777      5.517922   1.000000   1.000000
   49        5.590135      5.563292   1.000000   1.000000
   50        5.662995      5.601327   1.000000   1.000000
   51        5.677918      5.639955   1.000000   1.000000
   52        5.710623      5.662889   1.000000   1.000000
   53        5.732637      5.750930   1.000000   1.000000
   54        5.788782      5.788441   1.000000   1.000000
   55        5.890964      5.795562   1.000000   1.000000
   56        5.936918      5.877499   1.000000   1.000000
   57        5.989173      6.038040   1.000000   1.000000
   58        6.218921      6.140604   1.000000   1.000000
   59        6.231282      6.143507   1.000000   1.000000
   60        6.295161      6.251028   1.000000   1.000000
   61        6.412974      6.274662   1.000000   1.000000
   62        6.427972      6.359615   1.000000   1.000000
   63        6.435590      6.371870   1.000000   1.000000
   64        6.469706      6.385253   1.000000   1.000000
   65        6.547066      6.421972   1.000000   1.000000
   66        6.556183      6.488320   1.000000   1.000000
   67        6.578221      6.509061   1.000000   1.000000
   68        6.588275      6.557213   1.000000   1.000000
   69        6.627908      6.600814   1.000000   1.000000
   70        6.657055      6.601789   1.000000   1.000000
   71        6.679134      6.647459   1.000000   1.000000
   72        6.683214      6.683739   1.000000   1.000000
   73        6.684652      6.728534   1.000000   1.000000
   74        6.701964      6.741529   1.000000   1.000000
   75        6.718759      6.772369   1.000000   1.000000
   76        6.723842      6.777881   1.000000   1.000000
   77        6.803748      6.875447   1.000000   1.000000
   78        6.810019      6.904013   1.000000   1.000000
   79        6.954109      6.953278   1.000000   1.000000
   80        6.955498      7.009157   1.000000   1.000002
   81        7.110654      7.140956   1.000052   1.000121
   82        7.281783      7.241115   1.003274   1.001429
   83        7.291746      7.279688   1.003996   1.003170
   84        7.310832      7.307662   1.005615   1.005387
   85        7.355776      7.361926   1.011563   1.012677
   86        7.513143      7.455809   1.032066   1.032661
   87        7.534824      7.492808   1.023364   1.035320
   88        7.627075      7.546057   0.882467   1.015288
   89        7.744056      7.663489   0.444371   0.769632
   90        7.899639      7.717690   0.000191   0.557964
   91        7.910817      7.778664  -0.010860   0.306208
   92        7.943843      7.799723  -0.030392   0.232266
   93        8.039212      7.819446  -0.026168   0.165896
   94        8.042986      7.880828  -0.024963   0.026251
   95        8.107137      7.940781  -0.011552  -0.029355
   96        8.159764      7.979183  -0.004946  -0.035431
   97        8.239972      8.019805  -0.001551  -0.030193
   98        8.253893      8.126871  -0.000690  -0.008676
   99        8.344413      8.242898  -0.000074  -0.000897
  100        8.455716      8.282416  -0.000005  -0.000359
  101        8.457785      8.525556  -0.000002  -0.000000
  102        8.568066      8.527509  -0.000000  -0.000000
  103        8.592669      8.599028  -0.000000  -0.000000
  104        8.703712      8.658729  -0.000000  -0.000000
  105        8.734777      8.671004  -0.000000  -0.000000
  106        8.760474      8.682526  -0.000000  -0.000000
  107        8.828089      8.751019  -0.000000  -0.000000
  108        8.844651      8.804041  -0.000000  -0.000000
  109        8.866222      8.846720  -0.000000  -0.000000
  110        8.910678      8.878731  -0.000000  -0.000000
 
  0.2000000E+00  0.0000000E+00  0.0000000E+00  0.1333333E-01
    1       -2.426747     -2.431755   1.000000   1.000000
    2       -1.100766     -1.105433   1.000000   1.000000
    3       -0.272255     -0.275483   1.000000   1.000000
    4       -0.229566     -0.237834   1.000000   1.000000
    5       -0.053409     -0.058484   1.000000   1.000000
    6        0.570936      0.563807   1.000000   1.000000
    7        0.888986      0.880172   1.000000   1.000000
    8        0.924922      0.922043   1.000000   1.000000
    9        0.949535      0.941692   1.000000   1.000000
   10        1.433175      1.416463   1.000000   1.000000
   11        1.488349      1.477023   1.000000   1.000000
   12        1.494357      1.485658   1.000000   1.000000
   13        1.932081      1.917454   1.000000   1.000000
   14        2.302655      2.294072   1.000000   1.000000
   15        2.324322      2.303135   1.000000   1.000000
   16        2.338395      2.335292   1.000000   1.000000
   17        2.357965      2.337260   1.000000   1.000000
   18        2.828350      2.828676   1.000000   1.000000
   19        3.225414      3.208929   1.000000   1.000000
   20        3.305349      3.257873   1.000000   1.000000
   21        3.566740      3.571598   1.000000   1.000000
   22        3.675108      3.658546   1.000000   1.000000
   23        3.746513      3.739476   1.000000   1.000000
   24        4.096236      4.049465   1.000000   1.000000
   25        4.171146      4.150400   1.000000   1.000000
   26        4.268581      4.294391   1.000000   1.000000
   27        4.318415      4.321429   1.000000   1.000000
   28        4.453695      4.462481   1.000000   1.000000
   29        4.557554      4.526527   1.000000   1.000000
   30        4.609677      4.548752   1.000000   1.000000
   31        4.614620      4.606579   1.000000   1.000000
   32        4.649628      4.650133   1.000000   1.000000
   33        4.669069      4.691482   1.000000   1.000000
   34        4.743968      4.738026   1.000000   1.000000
   35        4.924448      4.832117   1.000000   1.000000
   36        4.966064      4.869231   1.000000   1.000000
   37        5.023512      4.961212   1.000000   1.000000
   38        5.060570      4.977350   1.000000   1.000000
   39        5.089843      5.012544   1.000000   1.000000
   40        5.131099      5.029475   1.000000   1.000000
   41        5.164482      5.126213   1.000000   1.000000
   42        5.299341      5.254998   1.000000   1.000000
   43        5.329078      5.267669   1.000000   1.000000
   44        5.377640      5.308511   1.000000   1.000000
   45        5.406982      5.411275   1.000000   1.000000
   46        5.419111      5.447717   1.000000   1.000000
   47        5.543556      5.504029   1.000000   1.000000
   48        5.548676      5.575388   1.000000   1.000000
   49        5.616993      5.591475   1.000000   1.000000
   50        5.653748      5.628928   1.000000   1.000000
   51        5.693427      5.676811   1.000000   1.000000
   52        5.755495      5.746312   1.000000   1.000000
   53        5.789757      5.771510   1.000000   1.000000
   54        5.846436      5.816057   1.000000   1.000000
   55        5.905560      5.855070   1.000000   1.000000
   56        5.941587      5.905363   1.000000   1.000000
   57        6.026596      6.046487   1.000000   1.000000
   58        6.166718      6.094056   1.000000   1.000000
   59        6.275632      6.151168   1.000000   1.000000
   60        6.311961      6.208487   1.000000   1.000000
   61        6.327823      6.276457   1.000000   1.000000
   62        6.405184      6.340275   1.000000   1.000000
   63        6.416811      6.359640   1.000000   1.000000
   64        6.430729      6.360690   1.000000   1.000000
   65        6.529018      6.389786   1.000000   1.000000
   66        6.531067      6.390010   1.000000   1.000000
   67        6.546591      6.462205   1.000000   1.000000
   68        6.549085      6.505162   1.000000   1.000000
   69        6.606652      6.574135   1.000000   1.000000
   70        6.630449      6.587948   1.000000   1.000000
   71        6.659260      6.636190   1.000000   1.000000
   72        6.680197      6.652001   1.000000   1.000000
   73        6.710111      6.689221   1.000000   1.000000
   74        6.714155      6.691946   1.000000   1.000000
   75        6.754865      6.757191   1.000000   1.000000
   76        6.791161      6.784615   1.000000   1.000000
   77        6.796037      6.863298   1.000000   1.000000
   78        6.818852      6.903099   1.000000   1.000000
   79        6.926324      6.954184   1.000000   1.000000
   80        6.980842      6.972870   1.000001   1.000001
   81        6.983306      7.131249   1.000001   1.000093
   82        7.102932      7.179455   1.000041   1.000333
   83        7.308634      7.311253   1.005418   1.005725
   84        7.389577      7.340481   1.018169   1.009244
   85        7.391754      7.385546   1.018593   1.017344
   86        7.511958      7.450506   1.032401   1.031614
   87        7.535752      7.459805   1.022695   1.033165
   88        7.652276      7.542986   0.807408   1.018081
   89        7.790437      7.688671   0.263056   0.676158
   90        7.813043      7.693298   0.184561   0.657944
   91        7.936847      7.786420  -0.027663   0.280026
   92        7.998605      7.814245  -0.033938   0.181748
   93        8.002094      7.853354  -0.033321   0.075760
   94        8.117494      7.891313  -0.009909   0.011536
   95        8.144469      7.933645  -0.006429  -0.026197
   96        8.172902      7.997002  -0.003847  -0.034004
   97        8.229556      8.145840  -0.001369  -0.006313
   98        8.238705      8.211634  -0.000985  -0.001803
   99        8.311688      8.284248  -0.000163  -0.000371
  100        8.444847      8.312576  -0.000009  -0.000159
  101        8.448668      8.396241  -0.000002  -0.000015
  102        8.540441      8.497662  -0.000000  -0.000001
  103        8.543106      8.565640  -0.000000  -0.000000
  104        8.632247      8.574252  -0.000000  -0.000000
  105        8.718932      8.598693  -0.000000  -0.000000
  106        8.742475      8.714622  -0.000000  -0.000000
  107        8.817014      8.839426  -0.000000  -0.000000
  108        8.952894      8.931466  -0.000000  -0.000000
  109        9.018282      8.967107  -0.000000  -0.000000
  110        9.029667      9.023143  -0.000000  -0.000000
 
  0.4000000E+00  0.0000000E+00  0.0000000E+00  0.1333333E-01
    1       -2.156675     -2.162230   1.000000   1.000000
    2       -1.711905     -1.715982   1.000000   1.000000
    3       -0.025197     -0.028987   1.000000   1.000000
    4        0.014384      0.005764   1.000000   1.000000
    5        0.141815      0.136574   1.000000   1.000000
    6        0.379013      0.376613   1.000000   1.000000
    7        0.413708      0.405551   1.000000   1.000000
    8        0.462055      0.454623   1.000000   1.000000
    9        1.584736      1.577507   1.000000   1.000000
   10        1.619231      1.600440   1.000000   1.000000
   11        1.675265      1.655766   1.000000   1.000000
   12        1.768746      1.764676   1.000000   1.000000
   13        1.925284      1.907943   1.000000   1.000000
   14        1.972091      1.959173   1.000000   1.000000
   15        2.225119      2.225900   1.000000   1.000000
   16        2.347061      2.321538   1.000000   1.000000
   17        2.681926      2.677143   1.000000   1.000000
   18        2.915163      2.903206   1.000000   1.000000
   19        3.048950      3.049074   1.000000   1.000000
   20        3.533756      3.534575   1.000000   1.000000
   21        3.759111      3.683350   1.000000   1.000000
   22        3.771531      3.766046   1.000000   1.000000
   23        3.822953      3.811095   1.000000   1.000000
   24        4.012046      3.980070   1.000000   1.000000
   25        4.032973      4.021325   1.000000   1.000000
   26        4.086691      4.116134   1.000000   1.000000
   27        4.220275      4.176295   1.000000   1.000000
   28        4.277828      4.272897   1.000000   1.000000
   29        4.341090      4.283399   1.000000   1.000000
   30        4.506208      4.455386   1.000000   1.000000
   31        4.554091      4.535578   1.000000   1.000000
   32        4.565702      4.555681   1.000000   1.000000
   33        4.692590      4.668548   1.000000   1.000000
   34        4.747132      4.761411   1.000000   1.000000
   35        4.899923      4.848995   1.000000   1.000000
   36        4.931639      4.863421   1.000000   1.000000
   37        4.978631      4.953304   1.000000   1.000000
   38        5.045244      5.029939   1.000000   1.000000
   39        5.163939      5.049478   1.000000   1.000000
   40        5.197568      5.082956   1.000000   1.000000
   41        5.240430      5.196407   1.000000   1.000000
   42        5.280697      5.210583   1.000000   1.000000
   43        5.342067      5.289512   1.000000   1.000000
   44        5.347711      5.313272   1.000000   1.000000
   45        5.394537      5.397673   1.000000   1.000000
   46        5.499401      5.470456   1.000000   1.000000
   47        5.527084      5.515181   1.000000   1.000000
   48        5.542766      5.567936   1.000000   1.000000
   49        5.601222      5.580724   1.000000   1.000000
   50        5.650342      5.675662   1.000000   1.000000
   51        5.689690      5.701107   1.000000   1.000000
   52        5.694470      5.733298   1.000000   1.000000
   53        5.729759      5.735660   1.000000   1.000000
   54        5.834746      5.760769   1.000000   1.000000
   55        5.873046      5.978306   1.000000   1.000000
   56        5.961524      6.046500   1.000000   1.000000
   57        6.156332      6.060785   1.000000   1.000000
   58        6.198799      6.086171   1.000000   1.000000
   59        6.205111      6.100176   1.000000   1.000000
   60        6.218186      6.192981   1.000000   1.000000
   61        6.326025      6.211013   1.000000   1.000000
   62        6.360906      6.234443   1.000000   1.000000
   63        6.411966      6.285380   1.000000   1.000000
   64        6.412606      6.289384   1.000000   1.000000
   65        6.459727      6.326046   1.000000   1.000000
   66        6.463335      6.412216   1.000000   1.000000
   67        6.516503      6.416927   1.000000   1.000000
   68        6.519490      6.446738   1.000000   1.000000
   69        6.560884      6.520154   1.000000   1.000000
   70        6.576439      6.535427   1.000000   1.000000
   71        6.606851      6.577480   1.000000   1.000000
   72        6.680354      6.593282   1.000000   1.000000
   73        6.685253      6.609910   1.000000   1.000000
   74        6.707366      6.689201   1.000000   1.000000
   75        6.717872      6.755920   1.000000   1.000000
   76        6.813795      6.765102   1.000000   1.000000
   77        6.851222      6.847253   1.000000   1.000000
   78        6.888254      6.866433   1.000000   1.000000
   79        6.934216      7.026380   1.000000   1.000004
   80        6.982715      7.028824   1.000001   1.000004
   81        7.035741      7.108463   1.000005   1.000048
   82        7.135802      7.149023   1.000105   1.000149
   83        7.277643      7.236906   1.003056   1.001309
   84        7.365556      7.324962   1.013408   1.007217
   85        7.399710      7.405958   1.020452   1.021867
   86        7.531023      7.454585   1.025451   1.032307
   87        7.559021      7.466354   1.003620   1.034086
   88        7.632860      7.558446   0.866240   1.005179
   89        7.704086      7.682645   0.615398   0.698705
   90        7.927770      7.737174  -0.023053   0.472723
   91        7.940571      7.817075  -0.029169   0.175383
   92        7.987679      7.882651  -0.034999   0.022237
   93        7.995190      7.906936  -0.034257  -0.007829
   94        8.030043      7.941085  -0.027889  -0.028958
   95        8.132035      7.951724  -0.007871  -0.032742
   96        8.204057      8.018783  -0.002106  -0.030412
   97        8.234857      8.136281  -0.001059  -0.007409
   98        8.259302      8.245985  -0.000612  -0.000816
   99        8.269556      8.253939  -0.000476  -0.000696
  100        8.332835      8.312110  -0.000089  -0.000158
  101        8.399206      8.324665  -0.000013  -0.000114
  102        8.425087      8.433161  -0.000006  -0.000004
  103        8.486878      8.447027  -0.000001  -0.000003
  104        8.588389      8.464755  -0.000000  -0.000001
  105        8.649395      8.529389  -0.000000  -0.000000
  106        8.685360      8.599858  -0.000000  -0.000000
  107        8.740645      8.912653  -0.000000  -0.000000
  108        8.751627      8.954287  -0.000000  -0.000000
  109        9.007643      8.987102  -0.000000  -0.000000
  110        9.112568      9.064249  -0.000000  -0.000000
 
  0.0000000E+00  0.2000000E+00  0.0000000E+00  0.1333333E-01
    1       -2.426795     -2.431731   1.000000   1.000000
    2       -1.100778     -1.105643   1.000000   1.000000
    3       -0.259655     -0.275116   1.000000   1.000000
    4       -0.242347     -0.237966   1.000000   1.000000
    5       -0.053373     -0.058651   1.000000   1.000000
    6        0.570745      0.564278   1.000000   1.000000
    7        0.889292      0.877610   1.000000   1.000000
    8        0.933675      0.918758   1.000000   1.000000
    9        0.941021      0.944279   1.000000   1.000000
   10        1.442538      1.434710   1.000000   1.000000
   11        1.480546      1.466130   1.000000   1.000000
   12        1.487942      1.485451   1.000000   1.000000
   13        1.937804      1.911998   1.000000   1.000000
   14        2.308175      2.307074   1.000000   1.000000
   15        2.329425      2.316912   1.000000   1.000000
   16        2.334069      2.322906   1.000000   1.000000
   17        2.351570      2.325934   1.000000   1.000000
   18        2.830291      2.829999   1.000000   1.000000
   19        3.241969      3.203580   1.000000   1.000000
   20        3.290901      3.260082   1.000000   1.000000
   21        3.589575      3.579684   1.000000   1.000000
   22        3.644788      3.648230   1.000000   1.000000
   23        3.743764      3.734969   1.000000   1.000000
   24        4.094361      4.049376   1.000000   1.000000
   25        4.160399      4.143499   1.000000   1.000000
   26        4.290087      4.301967   1.000000   1.000000
   27        4.321111      4.333153   1.000000   1.000000
   28        4.470819      4.472662   1.000000   1.000000
   29        4.562767      4.538446   1.000000   1.000000
   30        4.579069      4.564772   1.000000   1.000000
   31        4.616299      4.591184   1.000000   1.000000
   32        4.629222      4.604598   1.000000   1.000000
   33        4.674224      4.685468   1.000000   1.000000
   34        4.756708      4.740840   1.000000   1.000000
   35        4.884131      4.826149   1.000000   1.000000
   36        4.955613      4.870952   1.000000   1.000000
   37        5.049734      4.955302   1.000000   1.000000
   38        5.054200      4.972968   1.000000   1.000000
   39        5.087262      5.026041   1.000000   1.000000
   40        5.104909      5.039171   1.000000   1.000000
   41        5.195424      5.119456   1.000000   1.000000
   42        5.299151      5.241639   1.000000   1.000000
   43        5.346659      5.264130   1.000000   1.000000
   44        5.360785      5.380613   1.000000   1.000000
   45        5.388008      5.417397   1.000000   1.000000
   46        5.468552      5.428706   1.000000   1.000000
   47        5.538210      5.469644   1.000000   1.000000
   48        5.557753      5.523190   1.000000   1.000000
   49        5.606034      5.578480   1.000000   1.000000
   50        5.660628      5.624728   1.000000   1.000000
   51        5.695490      5.658476   1.000000   1.000000
   52        5.734505      5.741831   1.000000   1.000000
   53        5.798016      5.758424   1.000000   1.000000
   54        5.868265      5.876914   1.000000   1.000000
   55        5.907962      5.882651   1.000000   1.000000
   56        5.949625      5.913259   1.000000   1.000000
   57        5.992511      6.077713   1.000000   1.000000
   58        6.213573      6.136387   1.000000   1.000000
   59        6.268447      6.145294   1.000000   1.000000
   60        6.271169      6.239601   1.000000   1.000000
   61        6.372560      6.285276   1.000000   1.000000
   62        6.390584      6.334476   1.000000   1.000000
   63        6.443008      6.343510   1.000000   1.000000
   64        6.448542      6.372785   1.000000   1.000000
   65        6.503994      6.407530   1.000000   1.000000
   66        6.525666      6.434180   1.000000   1.000000
   67        6.562477      6.467575   1.000000   1.000000
   68        6.605740      6.493374   1.000000   1.000000
   69        6.606523      6.552892   1.000000   1.000000
   70        6.627731      6.598315   1.000000   1.000000
   71        6.669772      6.624248   1.000000   1.000000
   72        6.681989      6.651408   1.000000   1.000000
   73        6.688794      6.681150   1.000000   1.000000
   74        6.718163      6.717328   1.000000   1.000000
   75        6.737258      6.737143   1.000000   1.000000
   76        6.776639      6.791562   1.000000   1.000000
   77        6.792417      6.859323   1.000000   1.000000
   78        6.819320      6.892213   1.000000   1.000000
   79        6.875189      6.898180   1.000000   1.000000
   80        7.018920      7.001305   1.000003   1.000002
   81        7.019360      7.122477   1.000003   1.000073
   82        7.160047      7.204851   1.000204   1.000627
   83        7.246140      7.216192   1.001601   1.000820
   84        7.308310      7.293826   1.005401   1.004170
   85        7.418731      7.360932   1.024738   1.012499
   86        7.483894      7.446256   1.035425   1.030808
   87        7.489099      7.493640   1.035424   1.035204
   88        7.689318      7.550207   0.674110   1.012661
   89        7.803167      7.679029   0.216199   0.712287
   90        7.852727      7.722265   0.077980   0.539193
   91        7.895601      7.758960   0.004834   0.385374
   92        7.972582      7.792756  -0.035390   0.258112
   93        7.975413      7.886418  -0.035452   0.016714
   94        8.103781      7.895969  -0.012029   0.005614
   95        8.124546      7.972652  -0.008965  -0.035407
   96        8.176260      8.030272  -0.003606  -0.027929
   97        8.182475      8.111114  -0.003242  -0.011000
   98        8.231539      8.153142  -0.001156  -0.005454
   99        8.287369      8.189530  -0.000307  -0.002826
  100        8.399598      8.265925  -0.000012  -0.000522
  101        8.424939      8.415085  -0.000005  -0.000009
  102        8.450311      8.481134  -0.000002  -0.000001
  103        8.564199      8.577800  -0.000000  -0.000000
  104        8.662708      8.593185  -0.000000  -0.000000
  105        8.692947      8.712955  -0.000000  -0.000000
  106        8.791203      8.836832  -0.000000  -0.000000
  107        8.863903      8.851270  -0.000000  -0.000000
  108        8.995558      8.954642  -0.000000  -0.000000
  109        9.003445      8.955448  -0.000000  -0.000000
  110        9.031600      9.010530  -0.000000  -0.000000
 
  0.2000000E+00  0.2000000E+00  0.0000000E+00  0.1333333E-01
    1       -2.336501     -2.341517   1.000000   1.000000
    2       -1.032377     -1.024615   1.000000   1.000000
    3       -0.996610     -1.014850   1.000000   1.000000
    4        0.012447      0.007034   1.000000   1.000000
    5        0.229997      0.224664   1.000000   1.000000
    6        0.633527      0.638474   1.000000   1.000000
    7        0.666575      0.649112   1.000000   1.000000
    8        0.948163      0.927031   1.000000   1.000000
    9        0.957933      0.958968   1.000000   1.000000
   10        1.581896      1.579275   1.000000   1.000000
   11        1.732303      1.716653   1.000000   1.000000
   12        1.769693      1.774079   1.000000   1.000000
   13        1.850750      1.837476   1.000000   1.000000
   14        1.989444      1.973943   1.000000   1.000000
   15        2.014003      1.984159   1.000000   1.000000
   16        2.811497      2.793764   1.000000   1.000000
   17        2.868725      2.844494   1.000000   1.000000
   18        2.879159      2.872420   1.000000   1.000000
   19        2.880654      2.893092   1.000000   1.000000
   20        2.955272      2.925828   1.000000   1.000000
   21        3.675200      3.632069   1.000000   1.000000
   22        3.783881      3.769399   1.000000   1.000000
   23        3.801767      3.800231   1.000000   1.000000
   24        3.851398      3.847100   1.000000   1.000000
   25        4.138930      4.092492   1.000000   1.000000
   26        4.295410      4.334475   1.000000   1.000000
   27        4.348947      4.344880   1.000000   1.000000
   28        4.384181      4.360667   1.000000   1.000000
   29        4.403853      4.430445   1.000000   1.000000
   30        4.504382      4.437914   1.000000   1.000000
   31        4.535483      4.521546   1.000000   1.000000
   32        4.634601      4.592775   1.000000   1.000000
   33        4.673427      4.654321   1.000000   1.000000
   34        4.767747      4.719602   1.000000   1.000000
   35        4.841426      4.781712   1.000000   1.000000
   36        4.918559      4.854784   1.000000   1.000000
   37        4.931879      4.904967   1.000000   1.000000
   38        5.014105      4.914093   1.000000   1.000000
   39        5.098073      5.088910   1.000000   1.000000
   40        5.193938      5.103025   1.000000   1.000000
   41        5.281116      5.213773   1.000000   1.000000
   42        5.285678      5.251157   1.000000   1.000000
   43        5.330542      5.276824   1.000000   1.000000
   44        5.373715      5.299011   1.000000   1.000000
   45        5.420192      5.396134   1.000000   1.000000
   46        5.432088      5.414911   1.000000   1.000000
   47        5.563094      5.516642   1.000000   1.000000
   48        5.576783      5.613549   1.000000   1.000000
   49        5.661019      5.648883   1.000000   1.000000
   50        5.669461      5.698760   1.000000   1.000000
   51        5.734426      5.703621   1.000000   1.000000
   52        5.805991      5.730810   1.000000   1.000000
   53        5.811969      5.831188   1.000000   1.000000
   54        5.852804      5.834723   1.000000   1.000000
   55        5.920805      5.871061   1.000000   1.000000
   56        5.943987      5.985267   1.000000   1.000000
   57        5.974965      6.091166   1.000000   1.000000
   58        6.167771      6.094160   1.000000   1.000000
   59        6.243929      6.137032   1.000000   1.000000
   60        6.290908      6.207355   1.000000   1.000000
   61        6.321529      6.261101   1.000000   1.000000
   62        6.405957      6.316440   1.000000   1.000000
   63        6.416697      6.348229   1.000000   1.000000
   64        6.444141      6.351067   1.000000   1.000000
   65        6.496379      6.387738   1.000000   1.000000
   66        6.548614      6.400992   1.000000   1.000000
   67        6.561219      6.416394   1.000000   1.000000
   68        6.576084      6.516415   1.000000   1.000000