       N       E                     dE             d eps       ncg     rms          ort
DAV:   1     0.135263007442E+04    0.13526E+04   -0.58478E+04  5720   0.144E+03
DAV:   2    -0.558715850676E+02   -0.14085E+04   -0.13791E+04  5720   0.446E+02
DAV:   3    -0.236617553295E+03   -0.18075E+03   -0.16377E+03  5720   0.172E+02
DAV:   4    -0.265588096593E+03   -0.28971E+02   -0.25849E+02  5720   0.749E+01
DAV:   5    -0.268985802855E+03   -0.33977E+01   -0.32341E+01  5720   0.226E+01
DAV:   6    -0.269272083236E+03   -0.28628E+00   -0.27831E+00  5720   0.575E+00
DAV:   7    -0.269303970318E+03   -0.31887E-01   -0.31381E-01  5720   0.172E+00
DAV:   8    -0.269307083272E+03   -0.31130E-02   -0.30776E-02  5720   0.451E-01
SDA:   9    -0.655747785100E+02    0.20373E+03   -0.30776E-02  5720   0.226E+04 0.000E+00
CGA:  10    -0.210325537363E+03   -0.14475E+03   -0.14753E+03  5720   0.919E+02 0.297E+03
CGA:  11    -0.218917931876E+03   -0.85924E+01   -0.85310E+01  5720   0.633E+02 0.916E+00
CGA:  12    -0.228421109462E+03   -0.95032E+01   -0.94909E+01  5720   0.818E+02 0.481E-01
CGA:  13    -0.233287161993E+03   -0.48661E+01   -0.49319E+01  5720   0.988E+01 0.543E+00
CGA:  14    -0.234113418298E+03   -0.82626E+00   -0.83231E+00  5720   0.525E+01-0.290E-01
CGA:  15    -0.234965518755E+03   -0.85210E+00   -0.85239E+00  5720   0.563E+01 0.133E-01
CGA:  16    -0.235384280852E+03   -0.41876E+00   -0.41745E+00  5720   0.168E+01 0.201E-01
CGA:  17    -0.235535968050E+03   -0.15169E+00   -0.15150E+00  5720   0.135E+01 0.168E-02
CGA:  18    -0.235728349739E+03   -0.19238E+00   -0.19235E+00  5720   0.108E+01-0.147E-02
CGA:  19    -0.235822180903E+03   -0.93831E-01   -0.94108E-01  5720   0.394E+00-0.214E-02
CGA:  20    -0.235864312721E+03   -0.42132E-01   -0.42204E-01  5720   0.406E+00-0.140E-03
CGA:  21    -0.235935249074E+03   -0.70936E-01   -0.70924E-01  5720   0.336E+00 0.329E-03
CGA:  22    -0.235966212480E+03   -0.30963E-01   -0.30946E-01  5720   0.122E+00-0.158E-03
CGA:  23    -0.235979954722E+03   -0.13742E-01   -0.13732E-01  5720   0.130E+00-0.190E-03
CGA:  24    -0.235999094043E+03   -0.19139E-01   -0.19136E-01  5720   0.142E+00-0.510E-03
CGA:  25    -0.236013802456E+03   -0.14708E-01   -0.14698E-01  5720   0.888E-01-0.311E-03
CGA:  26    -0.236025623007E+03   -0.11821E-01   -0.11817E-01  5720   0.751E-01-0.147E-03
CGA:  27    -0.236034283906E+03   -0.86609E-02   -0.86558E-02  5720   0.447E-01-0.360E-04
CGA:  28    -0.236038766687E+03   -0.44828E-02   -0.44786E-02  5720   0.282E-01 0.646E-04
CGA:  29    -0.236042889887E+03   -0.41232E-02   -0.41232E-02  5720   0.269E-01 0.422E-04
CGA:  30    -0.236046064423E+03   -0.31745E-02   -0.31742E-02  5720   0.213E-01 0.321E-04
CGA:  31    -0.236048480654E+03   -0.24162E-02   -0.24169E-02  5720   0.185E-01 0.343E-04
CGA:  32    -0.236051015338E+03   -0.25347E-02   -0.25348E-02  5720   0.128E-01 0.548E-04
CGA:  33    -0.236052413480E+03   -0.13981E-02   -0.13997E-02  5720   0.718E-02 0.681E-04
CGA:  34    -0.236053294405E+03   -0.88092E-03   -0.88179E-03  5720   0.639E-02 0.522E-04
CGA:  35    -0.236054073192E+03   -0.77879E-03   -0.77951E-03  5720   0.448E-02 0.392E-04
CGA:  36    -0.236054624704E+03   -0.55151E-03   -0.55180E-03  5720   0.354E-02 0.186E-04
CGA:  37    -0.236055178395E+03   -0.55369E-03   -0.55327E-03  5720   0.466E-02 0.191E-04
CGA:  38    -0.236055643024E+03   -0.46463E-03   -0.46520E-03  5720   0.197E-02 0.206E-04
CGA:  39    -0.236055849315E+03   -0.20629E-03   -0.20671E-03  5720   0.914E-03 0.125E-04
SDA:  40    -0.236056011614E+03   -0.16230E-03   -0.16228E-03  5720   0.156E-02 0.777E-06
CGA:  41    -0.236056111163E+03   -0.99550E-04   -0.99115E-04  5720   0.814E-03-0.630E-05
CGA:  42    -0.236056219775E+03   -0.10861E-03   -0.10862E-03  5720   0.549E-03-0.153E-04
CGA:  43    -0.236056322727E+03   -0.10295E-03   -0.10362E-03  5720   0.108E-02-0.114E-04
CGA:  44    -0.236056422695E+03   -0.99968E-04   -0.99581E-04  5720   0.308E-03-0.905E-05
CGA:  45    -0.236056462772E+03   -0.40076E-04   -0.40067E-04  5720   0.369E-03-0.353E-05
CGA:  46    -0.236056531011E+03   -0.68239E-04   -0.68588E-04  5720   0.285E-03-0.661E-05
CGA:  47    -0.236056561163E+03   -0.30153E-04   -0.30106E-04  5720   0.294E-03-0.145E-05
CGA:  48    -0.236056618480E+03   -0.57317E-04   -0.57308E-04  5720   0.240E-03 0.145E-06
CGA:  49    -0.236056637435E+03   -0.18955E-04   -0.18980E-04  5720   0.130E-03 0.741E-06
CGA:  50    -0.236056663229E+03   -0.25795E-04   -0.25749E-04  5720   0.172E-03 0.916E-06
CGA:  51    -0.236056675333E+03   -0.12104E-04   -0.12136E-04  5720   0.554E-04 0.586E-06
CGA:  52    -0.236056686170E+03   -0.10837E-04   -0.10780E-04  5720   0.909E-04 0.105E-05
CGA:  53    -0.236056697374E+03   -0.11204E-04   -0.11228E-04  5720   0.284E-04 0.155E-05
CGA:  54    -0.236056702515E+03   -0.51409E-05   -0.51221E-05  5720   0.595E-04 0.430E-06
CGA:  55    -0.236056710057E+03   -0.75418E-05   -0.75479E-05  5720   0.109E-04 0.488E-06
CGA:  56    -0.236056711095E+03   -0.10383E-05   -0.10330E-05  5720   0.113E-04-0.109E-06
CGA:  57    -0.236056715511E+03   -0.44158E-05   -0.47413E-05  5720   0.442E-04-0.117E-05
CGA:  58    -0.236056717403E+03   -0.18917E-05   -0.18488E-05  5720   0.371E-06-0.445E-06
CGA:  59    -0.236056717409E+03   -0.65120E-08   -0.70460E-08  5720   0.485E-06 0.844E-07
   1 F= -.23605672E+03 E0= -.23605901E+03  d E =0.687028E-02  mag=    -1.1220
