 vasp.5.4.4.18Apr17-6-g9f103f2a35 (build Dec 20 2018 12:05:58) complex          
  
 executed on             LinuxIFC date 2019.06.20  16:44:37
 running on   32 total cores
 distrk:  each k-point on    8 cores,    4 groups
 distr:  one band on NCORES_PER_BAND=   4 cores,    2 groups


--------------------------------------------------------------------------------------------------------


 INCAR:
 POTCAR:    PAW_PBE Al 04Jan2001                  
 POTCAR:    PAW_PBE Mn 06Sep2000                  

 ----------------------------------------------------------------------------- 
|                                                                             |
|           W    W    AA    RRRRR   N    N  II  N    N   GGGG   !!!           |
|           W    W   A  A   R    R  NN   N  II  NN   N  G    G  !!!           |
|           W    W  A    A  R    R  N N  N  II  N N  N  G       !!!           |
|           W WW W  AAAAAA  RRRRR   N  N N  II  N  N N  G  GGG   !            |
|           WW  WW  A    A  R   R   N   NN  II  N   NN  G    G                |
|           W    W  A    A  R    R  N    N  II  N    N   GGGG   !!!           |
|                                                                             |
|      You have enabled k-point parallelism (KPAR>1).                         |
|      This developmental code was originally  written by Paul Kent at ORNL,  |
|      and carefully double checked in Vienna.                                |
|      GW as well as linear response parallelism added by Martijn Marsman     |
|      and Georg Kresse.                                                      |
|      Carefully verify results versus KPAR=1.                                |
|      Report problems to Paul Kent and Vienna.                               |
|                                                                             |
 ----------------------------------------------------------------------------- 

 POTCAR:    PAW_PBE Al 04Jan2001                  
   VRHFIN =Al: s2p1                                                             
   LEXCH  = PE                                                                  
   EATOM  =    53.5387 eV,    3.9350 Ry                                         
                                                                                
   TITEL  = PAW_PBE Al 04Jan2001                                                
   LULTRA =        F    use ultrasoft PP ?                                      
   IUNSCR =        1    unscreen: 0-lin 1-nonlin 2-no                           
   RPACOR =    1.500    partial core radius                                     
   POMASS =   26.981; ZVAL   =    3.000    mass and valenz                      
   RCORE  =    1.900    outmost cutoff radius                                   
   RWIGS  =    2.650; RWIGS  =    1.402    wigner-seitz radius (au A)           
   ENMAX  =  240.300; ENMIN  =  180.225 eV                                      
   ICORE  =        2    local potential                                         
   LCOR   =        T    correct aug charges                                     
   LPAW   =        T    paw PP                                                  
   EAUG   =  291.052                                                            
   DEXC   =    0.000                                                            
   RMAX   =    1.939    core radius for proj-oper                               
   RAUG   =    1.300    factor for augmentation sphere                          
   RDEP   =    1.966    radius for radial grids                                 
   RDEPT  =    1.856    core radius for aug-charge                              
                                                                                
   Atomic configuration                                                         
    6 entries                                                                   
     n  l   j            E        occ.                                          
     1  0  0.50     -1511.1048   2.0000                                         
     2  0  0.50      -108.1629   2.0000                                         
     2  1  1.50       -69.6402   6.0000                                         
     3  0  0.50        -7.7528   2.0000                                         
     3  1  1.50        -2.7121   1.0000                                         
     3  2  2.50        -2.7212   0.0000                                         
   Description                                                                  
     l       E           TYP  RCUT    TYP  RCUT                                 
     0     -7.7528455     23  1.900                                             
     0     -3.3096929     23  1.900                                             
     1     -2.7120682     23  1.900                                             
     1     13.6058260     23  1.900                                             
     2     -2.7211652      7  1.900                                             
  local pseudopotential read in
  partial core-charges read in
  partial kinetic energy density read in
  atomic valenz-charges read in
  non local Contribution for L=           0  read in
    real space projection operators read in
  non local Contribution for L=           0  read in
    real space projection operators read in
  non local Contribution for L=           1  read in
    real space projection operators read in
  non local Contribution for L=           1  read in
    real space projection operators read in
    PAW grid and wavefunctions read in
 
   number of l-projection  operators is LMAX  =           4
   number of lm-projection operators is LMMAX =           8
 
 POTCAR:    PAW_PBE Mn 06Sep2000                  
   VRHFIN =Mn: d6 s1                                                            
   LEXCH  = PE                                                                  
   EATOM  =   416.7541 eV,   30.6306 Ry                                         
                                                                                
   TITEL  = PAW_PBE Mn 06Sep2000                                                
   LULTRA =        F    use ultrasoft PP ?                                      
   IUNSCR =        1    unscreen: 0-lin 1-nonlin 2-no                           
   RPACOR =    2.000    partial core radius                                     
   POMASS =   54.938; ZVAL   =    7.000    mass and valenz                      
   RCORE  =    2.300    outmost cutoff radius                                   
   RWIGS  =    2.500; RWIGS  =    1.323    wigner-seitz radius (au A)           
   ENMAX  =  269.864; ENMIN  =  202.398 eV                                      
   RCLOC  =    1.725    cutoff for local pot                                    
   LCOR   =        T    correct aug charges                                     
   LPAW   =        T    paw PP                                                  
   EAUG   =  500.711                                                            
   DEXC   =    0.000                                                            
   RMAX   =    2.343    core radius for proj-oper                               
   RAUG   =    1.300    factor for augmentation sphere                          
   RDEP   =    2.338    radius for radial grids                                 
   RDEPT  =    1.911    core radius for aug-charge                              
                                                                                
   Atomic configuration                                                         
    9 entries                                                                   
     n  l   j            E        occ.                                          
     1  0  0.50     -6424.8288   2.0000                                         
     2  0  0.50      -739.1154   2.0000                                         
     2  1  1.50      -625.3949   6.0000                                         
     3  0  0.50       -81.6100   2.0000                                         
     3  1  1.50       -50.4667   6.0000                                         
     3  2  2.50        -3.3745   6.0000                                         
     4  0  0.50        -4.1331   1.0000                                         
     4  1  0.50        -4.0817   0.0000                                         
     4  3  2.50        -1.3606   0.0000                                         
   Description                                                                  
     l       E           TYP  RCUT    TYP  RCUT                                 
     2     -3.3744664     23  2.300                                             
     2     -4.7350490     23  2.300                                             
     0     -4.1331408     23  2.300                                             
     0      7.6656614     23  2.300                                             
     1     -2.7211652     23  2.300                                             
     1     20.4087390     23  2.300                                             
  local pseudopotential read in
  partial core-charges read in
  partial kinetic energy density read in
  atomic valenz-charges read in
  non local Contribution for L=           2  read in
    real space projection operators read in
  non local Contribution for L=           2  read in
    real space projection operators read in
  non local Contribution for L=           0  read in
    real space projection operators read in
  non local Contribution for L=           0  read in
    real space projection operators read in
  non local Contribution for L=           1  read in
    real space projection operators read in
  non local Contribution for L=           1  read in
    real space projection operators read in
    PAW grid and wavefunctions read in
 
   number of l-projection  operators is LMAX  =           6
   number of lm-projection operators is LMMAX =          18
 

 ----------------------------------------------------------------------------- 
|                                                                             |
|  ADVICE TO THIS USER RUNNING 'VASP/VAMP'   (HEAR YOUR MASTER'S VOICE ...):  |
|                                                                             |
|      You have a (more or less) 'large supercell' and for larger cells       |
|      it might be more efficient to use real space projection opertators     |
|      So try LREAL= Auto  in the INCAR   file.                               |
|      Mind:          For very  accurate calculation you might also keep the  |
|      reciprocal projection scheme          (i.e. LREAL=.FALSE.)             |
|                                                                             |
 ----------------------------------------------------------------------------- 

  PAW_PBE Al 04Jan2001                  :
 energy of atom  1       EATOM=  -53.5387
 kinetic energy error for atom=    0.0005 (will be added to EATOM!!)
  PAW_PBE Mn 06Sep2000                  :
 energy of atom  2       EATOM= -416.7541
 kinetic energy error for atom=    0.0080 (will be added to EATOM!!)
 
 
 POSCAR: NewRef: 18, @ ['Mn', array([1.37502469, 
  positions in cartesian coordinates
  velocities in cartesian coordinates
  No initial velocities read in
 exchange correlation table for  LEXCH =        8
   RHO(1)=    0.500       N(1)  =     2000
   RHO(2)=  100.500       N(2)  =     4000
 


--------------------------------------------------------------------------------------------------------


 ion  position               nearest neighbor table
   1  0.000  0.000  0.000-  20 2.61  24 2.61  32 2.61  36 2.61  31 2.61  23 2.61  35 2.61  19 2.61
                             3 2.75   7 2.75   5 2.75  13 2.75
   2  0.000  0.000  0.500-  19 2.61  23 2.61  31 2.61  35 2.61  20 2.61  32 2.61  24 2.61  36 2.61
                             4 2.75   8 2.75   6 2.75  14 2.75
   3  0.000  0.333  0.000-  20 2.61  32 2.61  22 2.61  34 2.61  19 2.61  31 2.61  33 2.61  21 2.61
                             9 2.75   1 2.75   5 2.75  15 2.75
   4  0.000  0.333  0.500-  19 2.61  31 2.61  21 2.61  33 2.61  32 2.61  20 2.61  22 2.61  34 2.61
                            10 2.75   2 2.75   6 2.75  16 2.75
   5  0.000  0.667  0.000-  22 2.61  34 2.61  24 2.61  36 2.61  21 2.61  33 2.61  35 2.61  23 2.61
                             3 2.75  11 2.75   1 2.75  17 2.75
   6  0.000  0.667  0.500-  21 2.61  33 2.61  23 2.61  35 2.61  34 2.61  22 2.61  24 2.61  36 2.61
                             4 2.75  12 2.75   2 2.75  18 2.75
   7  0.333  0.000  0.000-  20 2.61  24 2.61  26 2.61  30 2.61  23 2.61  19 2.61  29 2.61  25 2.61
                            13 2.75   1 2.75   9 2.75  11 2.75
   8  0.333  0.000  0.500-  19 2.61  23 2.61  25 2.61  29 2.61  20 2.61  24 2.61  26 2.61  30 2.61
                            14 2.75   2 2.75  10 2.75  12 2.75
   9  0.333  0.333  0.000-  20 2.61  22 2.61  26 2.61  19 2.61  28 2.61  21 2.61  25 2.61  27 2.61
                             3 2.75   7 2.75  11 2.75  15 2.75
  10  0.333  0.333  0.500-  19 2.61  21 2.61  25 2.61  20 2.61  27 2.61  26 2.61  22 2.61  28 2.61
                             4 2.75   8 2.75  12 2.75  16 2.75
  11  0.333  0.667  0.000-  22 2.61  24 2.61  28 2.61  21 2.61  30 2.61  23 2.61  27 2.61  29 2.61
                            17 2.75   5 2.75   9 2.75   7 2.75
  12  0.333  0.667  0.500-  21 2.61  23 2.61  27 2.61  22 2.61  29 2.61  28 2.61  24 2.61  30 2.61
                            18 2.75   6 2.75  10 2.75   8 2.75
  13  0.667  0.000  0.000-  26 2.61  30 2.61  32 2.61  36 2.61  29 2.61  25 2.61  35 2.61  31 2.61
                             7 2.75  15 2.75   1 2.75  17 2.75
  14  0.667  0.000  0.500-  25 2.61  29 2.61  31 2.61  35 2.61  26 2.61  30 2.61  32 2.61  36 2.61
                             8 2.75  16 2.75   2 2.75  18 2.75
  15  0.667  0.333  0.000-  26 2.61  28 2.61  32 2.61  25 2.61  34 2.61  27 2.61  31 2.61  33 2.61
                            17 2.75   9 2.75  13 2.75   3 2.75
  16  0.667  0.333  0.500-  25 2.61  27 2.61  31 2.61  26 2.61  33 2.61  32 2.61  28 2.61  34 2.61
                            18 2.75  10 2.75  14 2.75   4 2.75
  17  0.667  0.667  0.000-  28 2.61  30 2.61  34 2.61  27 2.61  36 2.61  29 2.61  33 2.61  35 2.61
                            11 2.75  15 2.75  13 2.75   5 2.75
  18  0.667  0.667  0.500-  27 2.61  29 2.61  33 2.61  28 2.61  35 2.61  34 2.61  30 2.61  36 2.61
                            12 2.75  16 2.75  14 2.75   6 2.75
  19  0.167  0.167  0.250-  10 2.61   8 2.61   4 2.61   9 2.61   2 2.61   7 2.61   3 2.61   1 2.61
                            21 2.75  25 2.75  23 2.75  31 2.75
  20  0.167  0.167  0.750-   9 2.61   7 2.61   3 2.61  10 2.61   1 2.61   4 2.61   8 2.61   2 2.61
                            22 2.75  26 2.75  24 2.75  32 2.75
  21  0.167  0.500  0.250-  12 2.61  10 2.61   6 2.61  11 2.61   4 2.61   9 2.61   5 2.61   3 2.61
                            19 2.75  23 2.75  27 2.75  33 2.75
  22  0.167  0.500  0.750-  11 2.61   9 2.61   5 2.61  12 2.61   3 2.61   6 2.61  10 2.61   4 2.61
                            20 2.75  24 2.75  28 2.75  34 2.75
  23  0.167  0.833  0.250-   8 2.61  12 2.61   2 2.61   6 2.61  11 2.61   7 2.61   5 2.61   1 2.61
                            21 2.75  29 2.75  19 2.75  35 2.75
  24  0.167  0.833  0.750-   7 2.61  11 2.61   1 2.61   5 2.61   8 2.61  12 2.61   2 2.61   6 2.61
                            22 2.75  30 2.75  20 2.75  36 2.75
  25  0.500  0.167  0.250-  16 2.61  14 2.61  10 2.61  15 2.61   8 2.61  13 2.61   9 2.61   7 2.61
                            19 2.75  27 2.75  31 2.75  29 2.75
  26  0.500  0.167  0.750-  15 2.61  13 2.61   9 2.61  16 2.61   7 2.61  10 2.61  14 2.61   8 2.61
                            20 2.75  28 2.75  32 2.75  30 2.75
  27  0.500  0.500  0.250-  18 2.61  16 2.61  12 2.61  17 2.61  10 2.61  15 2.61  11 2.61   9 2.61
                            21 2.75  25 2.75  29 2.75  33 2.75
  28  0.500  0.500  0.750-  17 2.61  15 2.61  11 2.61  18 2.61   9 2.61  12 2.61  16 2.61  10 2.61
                            22 2.75  26 2.75  30 2.75  34 2.75
  29  0.500  0.833  0.250-  14 2.61  18 2.61   8 2.61  12 2.61  17 2.61  13 2.61  11 2.61   7 2.61
                            23 2.75  27 2.75  35 2.75  25 2.75
  30  0.500  0.833  0.750-  13 2.61  17 2.61   7 2.61  11 2.61  14 2.61  18 2.61   8 2.61  12 2.61
                            24 2.75  28 2.75  36 2.75  26 2.75
  31  0.833  0.167  0.250-   4 2.61  16 2.61  14 2.61   2 2.61  15 2.61   3 2.61  13 2.61   1 2.61
                            25 2.75  33 2.75  19 2.75  35 2.75
  32  0.833  0.167  0.750-   3 2.61  15 2.61  13 2.61   1 2.61   4 2.61  16 2.61   2 2.61  14 2.61
                            26 2.75  34 2.75  20 2.75  36 2.75
  33  0.833  0.500  0.250-   6 2.61  18 2.61  16 2.61   4 2.61  17 2.61   5 2.61  15 2.61   3 2.61
                            27 2.75  31 2.75  35 2.75  21 2.75
  34  0.833  0.500  0.750-   5 2.61  17 2.61  15 2.61   3 2.61   6 2.61  18 2.61   4 2.61  16 2.61
                            28 2.75  32 2.75  36 2.75  22 2.75
  35  0.833  0.833  0.250-   2 2.61   6 2.61  14 2.61  18 2.61  13 2.61   5 2.61  17 2.61   1 2.61
                            29 2.75  33 2.75  31 2.75  23 2.75
  36  0.833  0.833  0.750-   1 2.61   5 2.61  13 2.61  17 2.61   2 2.61  14 2.61   6 2.61  18 2.61
                            30 2.75  34 2.75  32 2.75  24 2.75
 
  LATTYP: Found a simple tetragonal cell.
 ALAT       =     8.2501481662
 C/A-ratio  =     0.8428059861
  
  Lattice vectors:
  
 A1 = (   8.2501481662,   0.0000000000,   0.0000000000)
 A2 = (   0.0000000000,   8.2501481662,   0.0000000000)
 A3 = (   0.0000000000,   0.0000000000,   6.9532742610)


Analysis of symmetry for initial positions (statically):
=====================================================================
 Subroutine PRICEL returns following result:
 
  LATTYP: Found a simple tetragonal cell.
 ALAT       =     2.7500493888
 C/A-ratio  =     1.2642089792
  
  Lattice vectors:
  
 A1 = (   2.7500493888,   0.0000000000,   0.0000000000)
 A2 = (   0.0000000000,   2.7500493888,   0.0000000000)
 A3 = (   0.0000000000,   0.0000000000,   3.4766371305)
 
  18 primitive cells build up your supercell.
 

 Routine SETGRP: Setting up the symmetry group for a 
 simple tetragonal supercell.


 Subroutine GETGRP returns: Found 16 space group operations
 (whereof 16 operations were pure point group operations)
 out of a pool of 16 trial point group operations.


The static configuration has the point symmetry D_4h.


Analysis of symmetry for dynamics (positions and initial velocities):
=====================================================================
 Subroutine PRICEL returns following result:
 
  LATTYP: Found a simple tetragonal cell.
 ALAT       =     2.7500493888
 C/A-ratio  =     1.2642089792
  
  Lattice vectors:
  
 A1 = (   2.7500493888,   0.0000000000,   0.0000000000)
 A2 = (   0.0000000000,   2.7500493888,   0.0000000000)
 A3 = (   0.0000000000,   0.0000000000,   3.4766371305)
 
  18 primitive cells build up your supercell.
 

 Routine SETGRP: Setting up the symmetry group for a 
 simple tetragonal supercell.


 Subroutine GETGRP returns: Found 16 space group operations
 (whereof 16 operations were pure point group operations)
 out of a pool of 16 trial point group operations.


The dynamic configuration has the point symmetry D_4h.


Analysis of structural, dynamic, and magnetic symmetry:
=====================================================================
 Subroutine PRICEL returns:
 Original cell was already a primitive cell.
 

 Routine SETGRP: Setting up the symmetry group for a 
 simple tetragonal supercell.


 Subroutine GETGRP returns: Found  2 space group operations
 (whereof  1 operations were pure point group operations)
 out of a pool of 16 trial point group operations.


The magnetic configuration has the point symmetry C_1 .
 The point group associated with its full space group is C_1h.


 Subroutine INISYM returns: Found  2 space group operations
 (whereof  1 operations are pure point group operations),
 and found     1 'primitive' translations

 
 
 KPOINTS: automatic KPOINTS                       

Automatic generation of k-mesh.
 generate k-points for:    5    5    6
Space group operators:
 irot       det(A)        alpha          n_x          n_y          n_z        tau_x        tau_y        tau_z
    1     1.000000     0.000001     1.000000     0.000000     0.000000     0.000000     0.000000     0.000000
    2    -1.000000   179.999999     0.000000     0.000000     1.000000     0.000000     0.000000     0.500000
 
 Subroutine IBZKPT returns following result:
 ===========================================
 
 Found     52 irreducible k-points:
 
 Following reciprocal coordinates:
            Coordinates               Weight
  0.000000  0.000000  0.000000      1.000000
  0.200000  0.000000  0.000000      2.000000
  0.400000  0.000000  0.000000      2.000000
  0.000000  0.200000  0.000000      2.000000
  0.200000  0.200000  0.000000      2.000000
  0.400000  0.200000  0.000000      2.000000
 -0.400000  0.200000  0.000000      2.000000
 -0.200000  0.200000  0.000000      2.000000
  0.000000  0.400000  0.000000      2.000000
  0.200000  0.400000  0.000000      2.000000
  0.400000  0.400000  0.000000      2.000000
 -0.400000  0.400000  0.000000      2.000000
 -0.200000  0.400000  0.000000      2.000000
  0.000000  0.000000  0.166667      2.000000
  0.200000  0.000000  0.166667      4.000000
  0.400000  0.000000  0.166667      4.000000
  0.000000  0.200000  0.166667      4.000000
  0.200000  0.200000  0.166667      4.000000
  0.400000  0.200000  0.166667      4.000000
 -0.400000  0.200000  0.166667      4.000000
 -0.200000  0.200000  0.166667      4.000000
  0.000000  0.400000  0.166667      4.000000
  0.200000  0.400000  0.166667      4.000000
  0.400000  0.400000  0.166667      4.000000
 -0.400000  0.400000  0.166667      4.000000
 -0.200000  0.400000  0.166667      4.000000
  0.000000  0.000000  0.333333      2.000000
  0.200000  0.000000  0.333333      4.000000
  0.400000  0.000000  0.333333      4.000000
  0.000000  0.200000  0.333333      4.000000
  0.200000  0.200000  0.333333      4.000000
  0.400000  0.200000  0.333333      4.000000
 -0.400000  0.200000  0.333333      4.000000
 -0.200000  0.200000  0.333333      4.000000
  0.000000  0.400000  0.333333      4.000000
  0.200000  0.400000  0.333333      4.000000
  0.400000  0.400000  0.333333      4.000000
 -0.400000  0.400000  0.333333      4.000000
 -0.200000  0.400000  0.333333      4.000000
  0.000000  0.000000  0.500000      1.000000
  0.200000  0.000000  0.500000      2.000000
  0.400000  0.000000  0.500000      2.000000
  0.000000  0.200000  0.500000      2.000000
  0.200000  0.200000  0.500000      2.000000
  0.400000  0.200000  0.500000      2.000000
 -0.400000  0.200000  0.500000      2.000000
 -0.200000  0.200000  0.500000      2.000000
  0.000000  0.400000  0.500000      2.000000
  0.200000  0.400000  0.500000      2.000000
  0.400000  0.400000  0.500000      2.000000
 -0.400000  0.400000  0.500000      2.000000
 -0.200000  0.400000  0.500000      2.000000
 
 Following cartesian coordinates:
            Coordinates               Weight
  0.000000  0.000000  0.000000      1.000000
  0.024242  0.000000  0.000000      2.000000
  0.048484  0.000000  0.000000      2.000000
  0.000000  0.024242  0.000000      2.000000
  0.024242  0.024242  0.000000      2.000000
  0.048484  0.024242  0.000000      2.000000
 -0.048484  0.024242  0.000000      2.000000
 -0.024242  0.024242  0.000000      2.000000
  0.000000  0.048484  0.000000      2.000000
  0.024242  0.048484  0.000000      2.000000
  0.048484  0.048484  0.000000      2.000000
 -0.048484  0.048484  0.000000      2.000000
 -0.024242  0.048484  0.000000      2.000000
  0.000000  0.000000  0.023970      2.000000
  0.024242  0.000000  0.023970      4.000000
  0.048484  0.000000  0.023970      4.000000
  0.000000  0.024242  0.023970      4.000000
  0.024242  0.024242  0.023970      4.000000
  0.048484  0.024242  0.023970      4.000000
 -0.048484  0.024242  0.023970      4.000000
 -0.024242  0.024242  0.023970      4.000000
  0.000000  0.048484  0.023970      4.000000
  0.024242  0.048484  0.023970      4.000000
  0.048484  0.048484  0.023970      4.000000
 -0.048484  0.048484  0.023970      4.000000
 -0.024242  0.048484  0.023970      4.000000
  0.000000  0.000000  0.047939      2.000000
  0.024242  0.000000  0.047939      4.000000
  0.048484  0.000000  0.047939      4.000000
  0.000000  0.024242  0.047939      4.000000
  0.024242  0.024242  0.047939      4.000000
  0.048484  0.024242  0.047939      4.000000
 -0.048484  0.024242  0.047939      4.000000
 -0.024242  0.024242  0.047939      4.000000
  0.000000  0.048484  0.047939      4.000000
  0.024242  0.048484  0.047939      4.000000
  0.048484  0.048484  0.047939      4.000000
 -0.048484  0.048484  0.047939      4.000000
 -0.024242  0.048484  0.047939      4.000000
  0.000000  0.000000  0.071909      1.000000
  0.024242  0.000000  0.071909      2.000000
  0.048484  0.000000  0.071909      2.000000
  0.000000  0.024242  0.071909      2.000000
  0.024242  0.024242  0.071909      2.000000
  0.048484  0.024242  0.071909      2.000000
 -0.048484  0.024242  0.071909      2.000000
 -0.024242  0.024242  0.071909      2.000000
  0.000000  0.048484  0.071909      2.000000
  0.024242  0.048484  0.071909      2.000000
  0.048484  0.048484  0.071909      2.000000
 -0.048484  0.048484  0.071909      2.000000
 -0.024242  0.048484  0.071909      2.000000
 


--------------------------------------------------------------------------------------------------------




 Dimension of arrays:
   k-points           NKPTS =     52   k-points in BZ     NKDIM =     52   number of bands    NBANDS=    110
   number of dos      NEDOS =    301   number of ions     NIONS =     36
   non local maximal  LDIM  =      6   non local SUM 2l+1 LMDIM =     18
   total plane-waves  NPLWV = 139968
   max r-space proj   IRMAX =      1   max aug-charges    IRDMAX=  92271
   dimension x,y,z NGX =    54 NGY =   54 NGZ =   48
   dimension x,y,z NGXF=   108 NGYF=  108 NGZF=   96
   support grid    NGXF=   216 NGYF=  216 NGZF=  192
   ions per type =              18  18
   NGX,Y,Z   is equivalent  to a cutoff of  10.88, 10.88, 11.48 a.u.
   NGXF,Y,Z  is equivalent  to a cutoff of  21.76, 21.76, 22.95 a.u.

 SYSTEM =  AlMn_pv                                 
 POSCAR =  NewRef: 18, @ ['Mn', array([1.37502469, 

 Startparameter for this run:
   NWRITE =      2    write-flag & timer
   PREC   = accura    normal or accurate (medium, high low for compatibility)
   ISTART =      0    job   : 0-new  1-cont  2-samecut
   ICHARG =      2    charge: 1-file 2-atom 10-const
   ISPIN  =      2    spin polarized calculation?
   LNONCOLLINEAR =      F non collinear calculations
   LSORBIT =      F    spin-orbit coupling
   INIWAV =      1    electr: 0-lowe 1-rand  2-diag
   LASPH  =      F    aspherical Exc in radial PAW
   METAGGA=      F    non-selfconsistent MetaGGA calc.

 Electronic Relaxation 1
   ENCUT  =  404.8 eV  29.75 Ry    5.45 a.u.  13.53 13.53 11.41*2*pi/ulx,y,z
   ENINI  =  404.8     initial cutoff
   ENAUG  =  500.7 eV  augmentation charge cutoff
   NELM   =    100;   NELMIN=  4; NELMDL= -8     # of ELM steps 
   EDIFF  = 0.1E-06   stopping-criterion for ELM
   LREAL  =      F    real-space projection
   NLSPLINE    = F    spline interpolate recip. space projectors
   LCOMPAT=      F    compatible to vasp.4.4
   GGA_COMPAT  = T    GGA compatible to vasp.4.4-vasp.4.6
   LMAXPAW     = -100 max onsite density
   LMAXMIX     =    2 max onsite mixed and CHGCAR
   VOSKOWN=      0    Vosko Wilk Nusair interpolation
   ROPT   =    0.00000   0.00000
 Ionic relaxation
   EDIFFG = 0.1E-05   stopping-criterion for IOM
   NSW    =      0    number of steps for IOM
   NBLOCK =      1;   KBLOCK =      1    inner block; outer block 
   IBRION =     -1    ionic relax: 0-MD 1-quasi-New 2-CG
   NFREE  =      0    steps in history (QN), initial steepest desc. (CG)
   ISIF   =      2    stress and relaxation
   IWAVPR =     10    prediction:  0-non 1-charg 2-wave 3-comb
   ISYM   =      2    0-nonsym 1-usesym 2-fastsym
   LCORR  =      T    Harris-Foulkes like correction to forces

   POTIM  = 0.2000    time-step for ionic-motion
   TEIN   =    0.0    initial temperature
   TEBEG  =    0.0;   TEEND  =   0.0 temperature during run
   SMASS  =  -3.00    Nose mass-parameter (am)
   estimated Nose-frequenzy (Omega)   =  0.10E-29 period in steps =****** mass=  -0.156E-26a.u.
   SCALEE = 1.0000    scale energy and forces
   NPACO  =    256;   APACO  = 16.0  distance and # of slots for P.C.
   PSTRESS=    0.0 pullay stress

  Mass of Ions in am
   POMASS =  26.98 54.94
  Ionic Valenz
   ZVAL   =   3.00  7.00
  Atomic Wigner-Seitz radii
   RWIGS  =  -1.00 -1.00
  virtual crystal weights 
   VCA    =   1.00  1.00
   NELECT =     180.0000    total number of electrons
   NUPDOWN=      -1.0000    fix difference up-down

 DOS related values:
   EMIN   =  10.00;   EMAX   =-10.00  energy-range for DOS
   EFERMI =   0.00
   ISMEAR =     1;   SIGMA  =   0.20  broadening in eV -4-tet -1-fermi 0-gaus

 Electronic relaxation 2 (details)
   IALGO  =     58    algorithm
   LDIAG  =      T    sub-space diagonalisation (order eigenvalues)
   LSUBROT=      F    optimize rotation matrix (better conditioning)
   TURBO    =      0    0=normal 1=particle mesh
   IRESTART =      0    0=no restart 2=restart with 2 vectors
   NREBOOT  =      0    no. of reboots
   NMIN     =      0    reboot dimension
   EREF     =   0.00    reference energy to select bands
   IMIX   =      4    mixing-type and parameters
     AMIX     =   0.40;   BMIX     =  1.00
     AMIX_MAG =   1.60;   BMIX_MAG =  1.00
     AMIN     =   0.10
     WC   =   100.;   INIMIX=   1;  MIXPRE=   1;  MAXMIX= -45

 Intra band minimization:
   WEIMIN = 0.0000     energy-eigenvalue tresh-hold
   EBREAK =  0.23E-09  absolut break condition
   DEPER  =   0.30     relativ break condition  

   TIME   =   0.40     timestep for ELM

  volume/ion in A,a.u.               =      13.15        88.72
  Fermi-wavevector in a.u.,A,eV,Ry     =   1.186118  2.241439 19.141722  1.406877
  Thomas-Fermi vector in A             =   2.322298
 
 Write flags
   LWAVE        =      F    write WAVECAR
   LDOWNSAMPLE  =      F    k-point downsampling of WAVECAR
   LCHARG       =      F    write CHGCAR
   LVTOT        =      F    write LOCPOT, total local potential
   LVHAR        =      F    write LOCPOT, Hartree potential only
   LELF         =      F    write electronic localiz. function (ELF)
   LORBIT       =     10    0 simple, 1 ext, 2 COOP (PROOUT), +10 PAW based schemes


 Dipole corrections
   LMONO  =      F    monopole corrections only (constant potential shift)
   LDIPOL =      F    correct potential (dipole corrections)
   IDIPOL =      0    1-x, 2-y, 3-z, 4-all directions 
   EPSILON=  1.0000000 bulk dielectric constant

 Exchange correlation treatment:
   GGA     =    --    GGA type
   LEXCH   =     8    internal setting for exchange type
   VOSKOWN=      0    Vosko Wilk Nusair interpolation
   LHFCALC =     F    Hartree Fock is set to
   LHFONE  =     F    Hartree Fock one center treatment
   AEXX    =    0.0000 exact exchange contribution

 Linear response parameters
   LEPSILON=     F    determine dielectric tensor
   LRPA    =     F    only Hartree local field effects (RPA)
   LNABLA  =     F    use nabla operator in PAW spheres
   LVEL    =     F    velocity operator in full k-point grid
   LINTERFAST=   F  fast interpolation
   KINTER  =     0    interpolate to denser k-point grid
   CSHIFT  =0.1000    complex shift for real part using Kramers Kronig
   OMEGAMAX=  -1.0    maximum frequency
   DEG_THRESHOLD= 0.2000000E-02 threshold for treating states as degnerate
   RTIME   =   -0.100 relaxation time in fs
  (WPLASMAI=    0.000 imaginary part of plasma frequency in eV, 0.658/RTIME)
   DFIELD  = 0.0000000 0.0000000 0.0000000 field for delta impulse in time
 
 Orbital magnetization related:
   ORBITALMAG=     F  switch on orbital magnetization
   LCHIMAG   =     F  perturbation theory with respect to B field
   DQ        =  0.001000  dq finite difference perturbation B field
   LLRAUG    =     F  two centre corrections for induced B field



--------------------------------------------------------------------------------------------------------


 Static calculation
 charge density and potential will be updated during run
 spin polarized calculation
 Conjugate gradient for all bands (Freysoldt, et al. PRB 79, 241103 (2009))
 preconditioned conjugated gradient                                        
 perform sub-space diagonalisation
    before iterative eigenvector-optimisation
 modified Broyden-mixing scheme, WC =      100.0
 initial mixing is a Kerker type mixing with AMIX =  0.4000 and BMIX =      1.0000
 Hartree-type preconditioning will be used
 using additional bands           20
 reciprocal scheme for non local part
 use partial core corrections
 no Harris-corrections to forces 
 use gradient corrections 
 use of overlap-Matrix (Vanderbilt PP)
 Methfessel and Paxton  Order N= 1 SIGMA  =   0.20


--------------------------------------------------------------------------------------------------------


  energy-cutoff  :      404.80
  volume of cell :      473.27
      direct lattice vectors                 reciprocal lattice vectors
     8.250148166  0.000000000  0.000000000     0.121209944  0.000000000  0.000000000
     0.000000000  8.250148166  0.000000000     0.000000000  0.121209944  0.000000000
     0.000000000  0.000000000  6.953274261     0.000000000  0.000000000  0.143817137

  length of vectors
     8.250148166  8.250148166  6.953274261     0.121209944  0.121209944  0.143817137


 
 k-points in units of 2pi/SCALE and weight: automatic KPOINTS                       
   0.00000000  0.00000000  0.00000000       0.007
   0.02424199  0.00000000  0.00000000       0.013
   0.04848398  0.00000000  0.00000000       0.013
   0.00000000  0.02424199  0.00000000       0.013
   0.02424199  0.02424199  0.00000000       0.013
   0.04848398  0.02424199  0.00000000       0.013
  -0.04848398  0.02424199  0.00000000       0.013
  -0.02424199  0.02424199  0.00000000       0.013
   0.00000000  0.04848398  0.00000000       0.013
   0.02424199  0.04848398  0.00000000       0.013
   0.04848398  0.04848398  0.00000000       0.013
  -0.04848398  0.04848398  0.00000000       0.013
  -0.02424199  0.04848398  0.00000000       0.013
   0.00000000  0.00000000  0.02396952       0.013
   0.02424199  0.00000000  0.02396952       0.027
   0.04848398  0.00000000  0.02396952       0.027
   0.00000000  0.02424199  0.02396952       0.027
   0.02424199  0.02424199  0.02396952       0.027
   0.04848398  0.02424199  0.02396952       0.027
  -0.04848398  0.02424199  0.02396952       0.027
  -0.02424199  0.02424199  0.02396952       0.027
   0.00000000  0.04848398  0.02396952       0.027
   0.02424199  0.04848398  0.02396952       0.027
   0.04848398  0.04848398  0.02396952       0.027
  -0.04848398  0.04848398  0.02396952       0.027
  -0.02424199  0.04848398  0.02396952       0.027
   0.00000000  0.00000000  0.04793905       0.013
   0.02424199  0.00000000  0.04793905       0.027
   0.04848398  0.00000000  0.04793905       0.027
   0.00000000  0.02424199  0.04793905       0.027
   0.02424199  0.02424199  0.04793905       0.027
   0.04848398  0.02424199  0.04793905       0.027
  -0.04848398  0.02424199  0.04793905       0.027
  -0.02424199  0.02424199  0.04793905       0.027
   0.00000000  0.04848398  0.04793905       0.027
   0.02424199  0.04848398  0.04793905       0.027
   0.04848398  0.04848398  0.04793905       0.027
  -0.04848398  0.04848398  0.04793905       0.027
  -0.02424199  0.04848398  0.04793905       0.027
   0.00000000  0.00000000  0.07190857       0.007
   0.02424199  0.00000000  0.07190857       0.013
   0.04848398  0.00000000  0.07190857       0.013
   0.00000000  0.02424199  0.07190857       0.013
   0.02424199  0.02424199  0.07190857       0.013
   0.04848398  0.02424199  0.07190857       0.013
  -0.04848398  0.02424199  0.07190857       0.013
  -0.02424199  0.02424199  0.07190857       0.013
   0.00000000  0.04848398  0.07190857       0.013
   0.02424199  0.04848398  0.07190857       0.013
   0.04848398  0.04848398  0.07190857       0.013
  -0.04848398  0.04848398  0.07190857       0.013
  -0.02424199  0.04848398  0.07190857       0.013
 
 k-points in reciprocal lattice and weights: automatic KPOINTS                       
   0.00000000  0.00000000  0.00000000       0.007
   0.20000000  0.00000000  0.00000000       0.013
   0.40000000  0.00000000  0.00000000       0.013
   0.00000000  0.20000000  0.00000000       0.013
   0.20000000  0.20000000  0.00000000       0.013
   0.40000000  0.20000000  0.00000000       0.013
  -0.40000000  0.20000000  0.00000000       0.013
  -0.20000000  0.20000000  0.00000000       0.013
   0.00000000  0.40000000  0.00000000       0.013
   0.20000000  0.40000000  0.00000000       0.013
   0.40000000  0.40000000  0.00000000       0.013
  -0.40000000  0.40000000  0.00000000       0.013
  -0.20000000  0.40000000  0.00000000       0.013
   0.00000000  0.00000000  0.16666667       0.013
   0.20000000  0.00000000  0.16666667       0.027
   0.40000000  0.00000000  0.16666667       0.027
   0.00000000  0.20000000  0.16666667       0.027
   0.20000000  0.20000000  0.16666667       0.027
   0.40000000  0.20000000  0.16666667       0.027
  -0.40000000  0.20000000  0.16666667       0.027
  -0.20000000  0.20000000  0.16666667       0.027
   0.00000000  0.40000000  0.16666667       0.027
   0.20000000  0.40000000  0.16666667       0.027
   0.40000000  0.40000000  0.16666667       0.027
  -0.40000000  0.40000000  0.16666667       0.027
  -0.20000000  0.40000000  0.16666667       0.027
   0.00000000  0.00000000  0.33333333       0.013
   0.20000000  0.00000000  0.33333333       0.027
   0.40000000  0.00000000  0.33333333       0.027
   0.00000000  0.20000000  0.33333333       0.027
   0.20000000  0.20000000  0.33333333       0.027
   0.40000000  0.20000000  0.33333333       0.027
  -0.40000000  0.20000000  0.33333333       0.027
  -0.20000000  0.20000000  0.33333333       0.027
   0.00000000  0.40000000  0.33333333       0.027
   0.20000000  0.40000000  0.33333333       0.027
   0.40000000  0.40000000  0.33333333       0.027
  -0.40000000  0.40000000  0.33333333       0.027
  -0.20000000  0.40000000  0.33333333       0.027
   0.00000000  0.00000000  0.50000000       0.007
   0.20000000  0.00000000  0.50000000       0.013
   0.40000000  0.00000000  0.50000000       0.013
   0.00000000  0.20000000  0.50000000       0.013
   0.20000000  0.20000000  0.50000000       0.013
   0.40000000  0.20000000  0.50000000       0.013
  -0.40000000  0.20000000  0.50000000       0.013
  -0.20000000  0.20000000  0.50000000       0.013
   0.00000000  0.40000000  0.50000000       0.013
   0.20000000  0.40000000  0.50000000       0.013
   0.40000000  0.40000000  0.50000000       0.013
  -0.40000000  0.40000000  0.50000000       0.013
  -0.20000000  0.40000000  0.50000000       0.013
 
 position of ions in fractional coordinates (direct lattice) 
   0.00000000  0.00000000  0.00000000
   0.00000000  0.00000000  0.50000000
   0.00000000  0.33333333  0.00000000
   0.00000000  0.33333333  0.50000000
   0.00000000  0.66666667  0.00000000
   0.00000000  0.66666667  0.50000000
   0.33333333  0.00000000  0.00000000
   0.33333333  0.00000000  0.50000000
   0.33333333  0.33333333  0.00000000
   0.33333333  0.33333333  0.50000000
   0.33333333  0.66666667  0.00000000
   0.33333333  0.66666667  0.50000000
   0.66666667  0.00000000  0.00000000
   0.66666667  0.00000000  0.50000000
   0.66666667  0.33333333  0.00000000
   0.66666667  0.33333333  0.50000000
   0.66666667  0.66666667  0.00000000
   0.66666667  0.66666667  0.50000000
   0.16666667  0.16666667  0.25000000
   0.16666667  0.16666667  0.75000000
   0.16666667  0.50000000  0.25000000
   0.16666667  0.50000000  0.75000000
   0.16666667  0.83333333  0.25000000
   0.16666667  0.83333333  0.75000000
   0.50000000  0.16666667  0.25000000
   0.50000000  0.16666667  0.75000000
   0.50000000  0.50000000  0.25000000
   0.50000000  0.50000000  0.75000000
   0.50000000  0.83333333  0.25000000
   0.50000000  0.83333333  0.75000000
   0.83333333  0.16666667  0.25000000
   0.83333333  0.16666667  0.75000000
   0.83333333  0.50000000  0.25000000
   0.83333333  0.50000000  0.75000000
   0.83333333  0.83333333  0.25000000
   0.83333333  0.83333333  0.75000000
 
 position of ions in cartesian coordinates  (Angst):
   0.00000000  0.00000000  0.00000000
   0.00000000  0.00000000  3.47663713
   0.00000000  2.75004939  0.00000000
   0.00000000  2.75004939  3.47663713
   0.00000000  5.50009878  0.00000000
   0.00000000  5.50009878  3.47663713
   2.75004939  0.00000000  0.00000000
   2.75004939  0.00000000  3.47663713
   2.75004939  2.75004939  0.00000000
   2.75004939  2.75004939  3.47663713
   2.75004939  5.50009878  0.00000000
   2.75004939  5.50009878  3.47663713
   5.50009878  0.00000000  0.00000000
   5.50009878  0.00000000  3.47663713
   5.50009878  2.75004939  0.00000000
   5.50009878  2.75004939  3.47663713
   5.50009878  5.50009878  0.00000000
   5.50009878  5.50009878  3.47663713
   1.37502469  1.37502469  1.73831857
   1.37502469  1.37502469  5.21495570
   1.37502469  4.12507408  1.73831857
   1.37502469  4.12507408  5.21495570
   1.37502469  6.87512347  1.73831857
   1.37502469  6.87512347  5.21495570
   4.12507408  1.37502469  1.73831857
   4.12507408  1.37502469  5.21495570
   4.12507408  4.12507408  1.73831857
   4.12507408  4.12507408  5.21495570
   4.12507408  6.87512347  1.73831857
   4.12507408  6.87512347  5.21495570
   6.87512347  1.37502469  1.73831857
   6.87512347  1.37502469  5.21495570
   6.87512347  4.12507408  1.73831857
   6.87512347  4.12507408  5.21495570
   6.87512347  6.87512347  1.73831857
   6.87512347  6.87512347  5.21495570
 


--------------------------------------------------------------------------------------------------------


 k-point  1 :   0.0000 0.0000 0.0000  plane waves:    8799
 k-point  2 :   0.2000 0.0000 0.0000  plane waves:    8753
 k-point  3 :   0.4000 0.0000 0.0000  plane waves:    8757
 k-point  4 :   0.0000 0.2000 0.0000  plane waves:    8753
 k-point  5 :   0.2000 0.2000 0.0000  plane waves:    8767
 k-point  6 :   0.4000 0.2000 0.0000  plane waves:    8761
 k-point  7 :  -0.4000 0.2000 0.0000  plane waves:    8761
 k-point  8 :  -0.2000 0.2000 0.0000  plane waves:    8767
 k-point  9 :   0.0000 0.4000 0.0000  plane waves:    8757
 k-point 10 :   0.2000 0.4000 0.0000  plane waves:    8761
 k-point 11 :   0.4000 0.4000 0.0000  plane waves:    8731
 k-point 12 :  -0.4000 0.4000 0.0000  plane waves:    8731
 k-point 13 :  -0.2000 0.4000 0.0000  plane waves:    8761
 k-point 14 :   0.0000 0.0000 0.1667  plane waves:    8763
 k-point 15 :   0.2000 0.0000 0.1667  plane waves:    8771
 k-point 16 :   0.4000 0.0000 0.1667  plane waves:    8747
 k-point 17 :   0.0000 0.2000 0.1667  plane waves:    8771
 k-point 18 :   0.2000 0.2000 0.1667  plane waves:    8764
 k-point 19 :   0.4000 0.2000 0.1667  plane waves:    8768
 k-point 20 :  -0.4000 0.2000 0.1667  plane waves:    8768
 k-point 21 :  -0.2000 0.2000 0.1667  plane waves:    8764
 k-point 22 :   0.0000 0.4000 0.1667  plane waves:    8747
 k-point 23 :   0.2000 0.4000 0.1667  plane waves:    8768
 k-point 24 :   0.4000 0.4000 0.1667  plane waves:    8740
 k-point 25 :  -0.4000 0.4000 0.1667  plane waves:    8740
 k-point 26 :  -0.2000 0.4000 0.1667  plane waves:    8768
 k-point 27 :   0.0000 0.0000 0.3333  plane waves:    8743
 k-point 28 :   0.2000 0.0000 0.3333  plane waves:    8736
 k-point 29 :   0.4000 0.0000 0.3333  plane waves:    8753
 k-point 30 :   0.0000 0.2000 0.3333  plane waves:    8736
 k-point 31 :   0.2000 0.2000 0.3333  plane waves:    8753
 k-point 32 :   0.4000 0.2000 0.3333  plane waves:    8743
 k-point 33 :  -0.4000 0.2000 0.3333  plane waves:    8743
 k-point 34 :  -0.2000 0.2000 0.3333  plane waves:    8753
 k-point 35 :   0.0000 0.4000 0.3333  plane waves:    8753
 k-point 36 :   0.2000 0.4000 0.3333  plane waves:    8743
 k-point 37 :   0.4000 0.4000 0.3333  plane waves:    8755
 k-point 38 :  -0.4000 0.4000 0.3333  plane waves:    8755
 k-point 39 :  -0.2000 0.4000 0.3333  plane waves:    8743
 k-point 40 :   0.0000 0.0000 0.5000  plane waves:    8742
 k-point 41 :   0.2000 0.0000 0.5000  plane waves:    8756
 k-point 42 :   0.4000 0.0000 0.5000  plane waves:    8744
 k-point 43 :   0.0000 0.2000 0.5000  plane waves:    8756
 k-point 44 :   0.2000 0.2000 0.5000  plane waves:    8762
 k-point 45 :   0.4000 0.2000 0.5000  plane waves:    8732
 k-point 46 :  -0.4000 0.2000 0.5000  plane waves:    8732
 k-point 47 :  -0.2000 0.2000 0.5000  plane waves:    8762
 k-point 48 :   0.0000 0.4000 0.5000  plane waves:    8744
 k-point 49 :   0.2000 0.4000 0.5000  plane waves:    8732
 k-point 50 :   0.4000 0.4000 0.5000  plane waves:    8736
 k-point 51 :  -0.4000 0.4000 0.5000  plane waves:    8736
 k-point 52 :  -0.2000 0.4000 0.5000  plane waves:    8732

 maximum and minimum number of plane-waves per node :      2210     2164

 maximum number of plane-waves:      8799
 maximum index in each direction: 
   IXMAX=   13   IYMAX=   13   IZMAX=   11
   IXMIN=  -13   IYMIN=  -13   IZMIN=  -11


 parallel 3D FFT for wavefunctions:
    minimum data exchange during FFTs selected (reduces bandwidth)
 parallel 3D FFT for charge:
    minimum data exchange during FFTs selected (reduces bandwidth)


 total amount of memory used by VASP MPI-rank0   740218. kBytes
=======================================================================

   base      :      30000. kBytes
   nonl-proj :      34307. kBytes
   fftplans  :      21726. kBytes
   grid      :      14732. kBytes
   one-center:        279. kBytes
   wavefun   :     639174. kBytes
 
     INWAV:  cpu time    0.0000: real time    0.0000
 Broyden mixing: mesh for mixing (old mesh)
   NGX = 27   NGY = 27   NGZ = 23
  (NGX  =108   NGY  =108   NGZ  = 96)
  gives a total of  16767 points

 initial charge density was supplied:
 charge density of overlapping atoms calculated
 number of electron     180.0000000 magnetization       0.0000000
 keeping initial charge density in first step


--------------------------------------------------------------------------------------------------------


 Maximum index for augmentation-charges        11261 (set IRDMAX)


--------------------------------------------------------------------------------------------------------


 First call to EWALD:  gamma=   0.227
 Maximum number of real-space cells 3x 3x 3
 Maximum number of reciprocal cells 3x 3x 3

    FEWALD:  cpu time    0.0046: real time    0.0046


--------------------------------------- Iteration      1(   1)  ---------------------------------------


    POTLOK:  cpu time    0.2525: real time    0.2528
    SETDIJ:  cpu time    0.3199: real time    0.3212
    TRIAL :  cpu time   17.9087: real time   18.2110
    CORREC:  cpu time    0.0065: real time    0.0067
    --------------------------------------------
      LOOP:  cpu time   18.6911: real time   19.0162

 eigenvalue-minimisations  : 22880
 total energy-change (2. order) : 0.1352630E+04  (-0.5847797E+04)
 number of electron     180.0000000 magnetization       0.0000000
 augmentation part      180.0000000 magnetization       0.0000000

 Free energy of the ion-electron system (eV)
  ---------------------------------------------------
  alpha Z        PSCENC =       532.25742704
  Ewald energy   TEWEN  =     -8601.05107233
  -Hartree energ DENC   =     -1903.73857242
  -exchange      EXHF   =         0.00000000
  -V(xc)+E(xc)   XCENC  =      -664.56816198
  PAW double counting   =      8494.55058411    -7650.81563588
  entropy T*S    EENTRO =        -0.00230041
  eigenvalues    EBANDS =      2680.88179783
  atomic energy  EATOM  =      8465.11600846
  ---------------------------------------------------
  free energy    TOTEN  =      1352.63007442 eV

  energy without entropy =     1352.63237483  energy(sigma->0) =     1352.63084122


--------------------------------------------------------------------------------------------------------




--------------------------------------- Iteration      1(   2)  ---------------------------------------


    TRIAL :  cpu time   18.0005: real time   18.8619
    CORREC:  cpu time    0.0080: real time    0.0088
    --------------------------------------------
      LOOP:  cpu time   18.0095: real time   18.8738

 eigenvalue-minimisations  : 22880
 total energy-change (2. order) :-0.1408502E+04  (-0.1379062E+04)
 number of electron     180.0000000 magnetization       0.0000000
 augmentation part      180.0000000 magnetization       0.0000000

 Free energy of the ion-electron system (eV)
  ---------------------------------------------------
  alpha Z        PSCENC =       532.25742704
  Ewald energy   TEWEN  =     -8601.05107233
  -Hartree energ DENC   =     -1903.73857242
  -exchange      EXHF   =         0.00000000
  -V(xc)+E(xc)   XCENC  =      -664.56816198
  PAW double counting   =      8494.55058411    -7650.81563588
  entropy T*S    EENTRO =        -0.00205140
  eigenvalues    EBANDS =      1272.37988933
  atomic energy  EATOM  =      8465.11600846
  ---------------------------------------------------
  free energy    TOTEN  =       -55.87158507 eV

  energy without entropy =      -55.86953366  energy(sigma->0) =      -55.87090127


--------------------------------------------------------------------------------------------------------




--------------------------------------- Iteration      1(   3)  ---------------------------------------


    TRIAL :  cpu time   25.5879: real time   25.7397
    CORREC:  cpu time    0.0094: real time    0.0095
    --------------------------------------------
      LOOP:  cpu time   25.5981: real time   25.7518

 eigenvalue-minimisations  : 35008
 total energy-change (2. order) :-0.1807460E+03  (-0.1637663E+03)
 number of electron     180.0000000 magnetization       0.0000000
 augmentation part      180.0000000 magnetization       0.0000000

 Free energy of the ion-electron system (eV)
  ---------------------------------------------------
  alpha Z        PSCENC =       532.25742704
  Ewald energy   TEWEN  =     -8601.05107233
  -Hartree energ DENC   =     -1903.73857242
  -exchange      EXHF   =         0.00000000
  -V(xc)+E(xc)   XCENC  =      -664.56816198
  PAW double counting   =      8494.55058411    -7650.81563588
  entropy T*S    EENTRO =         0.00118256
  eigenvalues    EBANDS =      1091.63068714
  atomic energy  EATOM  =      8465.11600846
  ---------------------------------------------------
  free energy    TOTEN  =      -236.61755330 eV

  energy without entropy =     -236.61873585  energy(sigma->0) =     -236.61794748


--------------------------------------------------------------------------------------------------------




--------------------------------------- Iteration      1(   4)  ---------------------------------------


    TRIAL :  cpu time   26.3327: real time   26.5525
    CORREC:  cpu time    0.0098: real time    0.0107
    --------------------------------------------
      LOOP:  cpu time   26.3437: real time   26.5666

 eigenvalue-minimisations  : 37240
 total energy-change (2. order) :-0.2897054E+02  (-0.2584930E+02)
 number of electron     180.0000000 magnetization       0.0000000
 augmentation part      180.0000000 magnetization       0.0000000

 Free energy of the ion-electron system (eV)
  ---------------------------------------------------
  alpha Z        PSCENC =       532.25742704
  Ewald energy   TEWEN  =     -8601.05107233
  -Hartree energ DENC   =     -1903.73857242
  -exchange      EXHF   =         0.00000000
  -V(xc)+E(xc)   XCENC  =      -664.56816198
  PAW double counting   =      8494.55058411    -7650.81563588
  entropy T*S    EENTRO =         0.02065293
  eigenvalues    EBANDS =      1062.64067347
  atomic energy  EATOM  =      8465.11600846
  ---------------------------------------------------
  free energy    TOTEN  =      -265.58809659 eV

  energy without entropy =     -265.60874953  energy(sigma->0) =     -265.59498090


--------------------------------------------------------------------------------------------------------




--------------------------------------- Iteration      1(   5)  ---------------------------------------


    TRIAL :  cpu time   27.4180: real time   28.1635
    CORREC:  cpu time    0.0100: real time    0.0101
    --------------------------------------------
      LOOP:  cpu time   27.4288: real time   28.1768

 eigenvalue-minimisations  : 38472
 total energy-change (2. order) :-0.3397706E+01  (-0.3234060E+01)
 number of electron     180.0000000 magnetization       0.0000000
 augmentation part      180.0000000 magnetization       0.0000000

 Free energy of the ion-electron system (eV)
  ---------------------------------------------------
  alpha Z        PSCENC =       532.25742704
  Ewald energy   TEWEN  =     -8601.05107233
  -Hartree energ DENC   =     -1903.73857242
  -exchange      EXHF   =         0.00000000
  -V(xc)+E(xc)   XCENC  =      -664.56816198
  PAW double counting   =      8494.55058411    -7650.81563588
  entropy T*S    EENTRO =         0.03167567
  eigenvalues    EBANDS =      1059.23194447
  atomic energy  EATOM  =      8465.11600846
  ---------------------------------------------------
  free energy    TOTEN  =      -268.98580285 eV

  energy without entropy =     -269.01747853  energy(sigma->0) =     -268.99636141


--------------------------------------------------------------------------------------------------------




--------------------------------------- Iteration      1(   6)  ---------------------------------------


    TRIAL :  cpu time   26.8274: real time   27.1720
    CORREC:  cpu time    0.0100: real time    0.0108
    --------------------------------------------
      LOOP:  cpu time   26.8399: real time   27.1862

 eigenvalue-minimisations  : 38128
 total energy-change (2. order) :-0.2862804E+00  (-0.2783137E+00)
 number of electron     180.0000000 magnetization       0.0000000
 augmentation part      180.0000000 magnetization       0.0000000

 Free energy of the ion-electron system (eV)
  ---------------------------------------------------
  alpha Z        PSCENC =       532.25742704
  Ewald energy   TEWEN  =     -8601.05107233
  -Hartree energ DENC   =     -1903.73857242
  -exchange      EXHF   =         0.00000000
  -V(xc)+E(xc)   XCENC  =      -664.56816198
  PAW double counting   =      8494.55058411    -7650.81563588
  entropy T*S    EENTRO =         0.03350463
  eigenvalues    EBANDS =      1058.94383513
  atomic energy  EATOM  =      8465.11600846
  ---------------------------------------------------
  free energy    TOTEN  =      -269.27208324 eV

  energy without entropy =     -269.30558787  energy(sigma->0) =     -269.28325145


--------------------------------------------------------------------------------------------------------




--------------------------------------- Iteration      1(   7)  ---------------------------------------


    TRIAL :  cpu time   27.5501: real time   28.3640
    CORREC:  cpu time    0.0099: real time    0.0100
    --------------------------------------------
      LOOP:  cpu time   27.5607: real time   28.3773

 eigenvalue-minimisations  : 39112
 total energy-change (2. order) :-0.3188708E-01  (-0.3138091E-01)
 number of electron     180.0000000 magnetization       0.0000000
 augmentation part      180.0000000 magnetization       0.0000000

 Free energy of the ion-electron system (eV)
  ---------------------------------------------------
  alpha Z        PSCENC =       532.25742704
  Ewald energy   TEWEN  =     -8601.05107233
  -Hartree energ DENC   =     -1903.73857242
  -exchange      EXHF   =         0.00000000
  -V(xc)+E(xc)   XCENC  =      -664.56816198
  PAW double counting   =      8494.55058411    -7650.81563588
  entropy T*S    EENTRO =         0.03398447
  eigenvalues    EBANDS =      1058.91146821
  atomic energy  EATOM  =      8465.11600846
  ---------------------------------------------------
  free energy    TOTEN  =      -269.30397032 eV

  energy without entropy =     -269.33795479  energy(sigma->0) =     -269.31529847


--------------------------------------------------------------------------------------------------------




--------------------------------------- Iteration      1(   8)  ---------------------------------------


    TRIAL :  cpu time   26.9564: real time   27.2193
    CORREC:  cpu time    0.0153: real time    0.0163
    CHARGE:  cpu time    1.1129: real time    1.1187
    --------------------------------------------
      LOOP:  cpu time   28.0857: real time   28.3584

 eigenvalue-minimisations  : 37288
 total energy-change (2. order) :-0.3112954E-02  (-0.3077580E-02)
 number of electron     179.9999997 magnetization       1.0597761
 augmentation part       42.6338773 magnetization       0.5263816

 Free energy of the ion-electron system (eV)
  ---------------------------------------------------
  alpha Z        PSCENC =       532.25742704
  Ewald energy   TEWEN  =     -8601.05107233
  -Hartree energ DENC   =     -1903.73857242
  -exchange      EXHF   =         0.00000000
  -V(xc)+E(xc)   XCENC  =      -664.56816198
  PAW double counting   =      8494.55058411    -7650.81563588
  entropy T*S    EENTRO =         0.03417682
  eigenvalues    EBANDS =      1058.90816290
  atomic energy  EATOM  =      8465.11600846
  ---------------------------------------------------
  free energy    TOTEN  =      -269.30708327 eV

  energy without entropy =     -269.34126010  energy(sigma->0) =     -269.31847555


--------------------------------------------------------------------------------------------------------




--------------------------------------- Iteration      1(   9)  ---------------------------------------


    POTLOK:  cpu time    0.2514: real time    0.3010
    SETDIJ:  cpu time    0.3176: real time    0.3176
    TRIAL :  cpu time    9.0238: real time    9.0453
    CORREC:  cpu time    3.3739: real time    3.4044
    CHARGE:  cpu time    1.0810: real time    1.0895
    --------------------------------------------
      LOOP:  cpu time   14.0542: real time   14.1647

 eigenvalue-minimisations  :     0
 total energy-change (2. order) : 0.2037323E+03  (-0.1475257E+03)
 number of electron     179.9999996 magnetization       0.6300052
 augmentation part       55.0083399 magnetization       0.2918662

 Free energy of the ion-electron system (eV)
  ---------------------------------------------------
  alpha Z        PSCENC =       532.25742704
  Ewald energy   TEWEN  =     -8601.05107233
  -Hartree energ DENC   =      -841.40330352
  -exchange      EXHF   =         0.00000000
  -V(xc)+E(xc)   XCENC  =      -694.77119603
  PAW double counting   =     12765.60571207   -11818.86033596
  entropy T*S    EENTRO =         0.01399368
  eigenvalues    EBANDS =       127.49780494
  atomic energy  EATOM  =      8465.11600846
  ---------------------------------------------------
  free energy    TOTEN  =       -65.57477851 eV

  energy without entropy =      -65.58877219  energy(sigma->0) =      -65.57944307


--------------------------------------------------------------------------------------------------------




--------------------------------------- Iteration      1(  10)  ---------------------------------------


    POTLOK:  cpu time    0.2476: real time    0.2480
    SETDIJ:  cpu time    0.4707: real time    1.1866
    TRIAL :  cpu time    8.9173: real time    8.9532
    CORREC:  cpu time    3.3411: real time    3.3425
    CHARGE:  cpu time    1.0486: real time    1.0674
    --------------------------------------------
      LOOP:  cpu time   14.0266: real time   14.7998

 eigenvalue-minimisations  :     0
 total energy-change (2. order) :-0.1447508E+03  (-0.8530978E+01)
 number of electron     179.9999996 magnetization       0.4185301
 augmentation part       58.0784728 magnetization       0.2445291

 Free energy of the ion-electron system (eV)
  ---------------------------------------------------
  alpha Z        PSCENC =       532.25742704
  Ewald energy   TEWEN  =     -8601.05107233
  -Hartree energ DENC   =     -1403.51588461
  -exchange      EXHF   =         0.00000000
  -V(xc)+E(xc)   XCENC  =      -675.41093588
  PAW double counting   =     13789.13658735   -12964.97361255
  entropy T*S    EENTRO =         0.00776589
  eigenvalues    EBANDS =       648.10195148
  atomic energy  EATOM  =      8465.11600846
  ---------------------------------------------------
  free energy    TOTEN  =      -210.32553736 eV

  energy without entropy =     -210.33330325  energy(sigma->0) =     -210.32812599


--------------------------------------------------------------------------------------------------------




--------------------------------------- Iteration      1(  11)  ---------------------------------------


    POTLOK:  cpu time    0.2475: real time    0.2475
    SETDIJ:  cpu time    0.3262: real time    0.3263
    TRIAL :  cpu time    9.6216: real time    9.7169
    CORREC:  cpu time    3.3713: real time    3.4071
    CHARGE:  cpu time    1.0635: real time    1.0636
    --------------------------------------------
      LOOP:  cpu time   14.6365: real time   14.7692

 eigenvalue-minimisations  :     0
 total energy-change (2. order) :-0.8592395E+01  (-0.9490852E+01)
 number of electron     179.9999996 magnetization      -0.0560043
 augmentation part       59.1871386 magnetization      -0.0571655

 Free energy of the ion-electron system (eV)
  ---------------------------------------------------
  alpha Z        PSCENC =       532.25742704
  Ewald energy   TEWEN  =     -8601.05107233
  -Hartree energ DENC   =     -1587.05938323
  -exchange      EXHF   =         0.00000000
  -V(xc)+E(xc)   XCENC  =      -668.97218077
  PAW double counting   =     14498.82845781   -13704.86197420
  entropy T*S    EENTRO =         0.00884161
  eigenvalues    EBANDS =       846.81701946
  atomic energy  EATOM  =      8465.11600846
  ---------------------------------------------------
  free energy    TOTEN  =      -218.91793188 eV

  energy without entropy =     -218.92677349  energy(sigma->0) =     -218.92087908


--------------------------------------------------------------------------------------------------------




--------------------------------------- Iteration      1(  12)  ---------------------------------------


    POTLOK:  cpu time    0.2474: real time    0.2474
    SETDIJ:  cpu time    0.3514: real time    0.3515
    TRIAL :  cpu time    8.9101: real time    9.0941
    CORREC:  cpu time    3.3221: real time    3.3418
    CHARGE:  cpu time    1.0675: real time    1.0686
    --------------------------------------------
      LOOP:  cpu time   13.8996: real time   14.1059

 eigenvalue-minimisations  :     0
 total energy-change (2. order) :-0.9503178E+01  (-0.4931899E+01)
 number of electron     179.9999996 magnetization      -0.2340570
 augmentation part       58.0956133 magnetization      -0.1635100

 Free energy of the ion-electron system (eV)
  ---------------------------------------------------
  alpha Z        PSCENC =       532.25742704
  Ewald energy   TEWEN  =     -8601.05107233
  -Hartree energ DENC   =     -1715.93853802
  -exchange      EXHF   =         0.00000000
  -V(xc)+E(xc)   XCENC  =      -664.86133457
  PAW double counting   =     14430.05609822   -13631.49634699
  entropy T*S    EENTRO =         0.00951853
  eigenvalues    EBANDS =       957.48780711
  atomic energy  EATOM  =      8465.11600846
  ---------------------------------------------------
  free energy    TOTEN  =      -228.42110946 eV

  energy without entropy =     -228.43062799  energy(sigma->0) =     -228.42428230


--------------------------------------------------------------------------------------------------------




--------------------------------------- Iteration      1(  13)  ---------------------------------------


    POTLOK:  cpu time    0.2474: real time    0.2474
    SETDIJ:  cpu time    0.3414: real time    0.3417
    TRIAL :  cpu time    8.9862: real time    9.0817
    CORREC:  cpu time    3.3726: real time    3.3743
    CHARGE:  cpu time    1.1048: real time    1.1143
    --------------------------------------------
      LOOP:  cpu time   14.0553: real time   14.1642

 eigenvalue-minimisations  :     0
 total energy-change (2. order) :-0.4866053E+01  (-0.8323136E+00)
 number of electron     179.9999997 magnetization      -0.3191171
 augmentation part       57.3100986 magnetization      -0.2107474

 Free energy of the ion-electron system (eV)
  ---------------------------------------------------
  alpha Z        PSCENC =       532.25742704
  Ewald energy   TEWEN  =     -8601.05107233
  -Hartree energ DENC   =     -1695.41577904
  -exchange      EXHF   =         0.00000000
  -V(xc)+E(xc)   XCENC  =      -665.95036160
  PAW double counting   =     14174.43609653   -13351.82358455
  entropy T*S    EENTRO =         0.00962200
  eigenvalues    EBANDS =       909.13458498
  atomic energy  EATOM  =      8465.11600846
  ---------------------------------------------------
  free energy    TOTEN  =      -233.28716199 eV

  energy without entropy =     -233.29678399  energy(sigma->0) =     -233.29036932


--------------------------------------------------------------------------------------------------------




--------------------------------------- Iteration      1(  14)  ---------------------------------------


    POTLOK:  cpu time    0.2471: real time    0.2471
    SETDIJ:  cpu time    0.3831: real time    0.3831
    TRIAL :  cpu time    8.8991: real time    9.6566
    CORREC:  cpu time    3.3735: real time    3.3746
    CHARGE:  cpu time    1.0807: real time    1.0807
    --------------------------------------------
      LOOP:  cpu time   13.9862: real time   14.7449

 eigenvalue-minimisations  :     0
 total energy-change (2. order) :-0.8262563E+00  (-0.8523853E+00)
 number of electron     179.9999996 magnetization      -0.4010407
 augmentation part       57.3033462 magnetization      -0.2954951

 Free energy of the ion-electron system (eV)
  ---------------------------------------------------
  alpha Z        PSCENC =       532.25742704
  Ewald energy   TEWEN  =     -8601.05107233
  -Hartree energ DENC   =     -1653.36096828
  -exchange      EXHF   =         0.00000000
  -V(xc)+E(xc)   XCENC  =      -667.48553685
  PAW double counting   =     13856.22846510   -13021.93244969
  entropy T*S    EENTRO =         0.01015637
  eigenvalues    EBANDS =       856.10508626
  atomic energy  EATOM  =      8465.11600846
  ---------------------------------------------------
  free energy    TOTEN  =      -234.11341830 eV

  energy without entropy =     -234.12357467  energy(sigma->0) =     -234.11680375


--------------------------------------------------------------------------------------------------------




--------------------------------------- Iteration      1(  15)  ---------------------------------------


    POTLOK:  cpu time    0.2674: real time    0.2674
    SETDIJ:  cpu time    0.3159: real time    0.3159
    TRIAL :  cpu time    9.6244: real time    9.6680
    CORREC:  cpu time    3.3337: real time    3.4365
    CHARGE:  cpu time    1.0813: real time    1.0813
    --------------------------------------------
      LOOP:  cpu time   14.6304: real time   14.7771

 eigenvalue-minimisations  :     0
 total energy-change (2. order) :-0.8521005E+00  (-0.4174527E+00)
 number of electron     179.9999996 magnetization      -0.5052817
 augmentation part       57.8173568 magnetization      -0.3735048

 Free energy of the ion-electron system (eV)
  ---------------------------------------------------
  alpha Z        PSCENC =       532.25742704
  Ewald energy   TEWEN  =     -8601.05107233
  -Hartree energ DENC   =     -1640.74981947
  -exchange      EXHF   =         0.00000000
  -V(xc)+E(xc)   XCENC  =      -667.86907401
  PAW double counting   =     13298.74620584   -12460.85388427
  entropy T*S    EENTRO =         0.01004651
  eigenvalues    EBANDS =       839.42853362
  atomic energy  EATOM  =      8465.11600846
  ---------------------------------------------------
  free energy    TOTEN  =      -234.96551876 eV

  energy without entropy =     -234.97556526  energy(sigma->0) =     -234.96886759


--------------------------------------------------------------------------------------------------------




--------------------------------------- Iteration      1(  16)  ---------------------------------------


    POTLOK:  cpu time    0.2470: real time    0.2470
    SETDIJ:  cpu time    0.3603: real time    0.3603
    TRIAL :  cpu time    8.8952: real time    9.0190
    CORREC:  cpu time    3.3968: real time    3.4588
    CHARGE:  cpu time    1.0736: real time    1.0835
    --------------------------------------------
      LOOP:  cpu time   13.9776: real time   14.1747

 eigenvalue-minimisations  :     0
 total energy-change (2. order) :-0.4187621E+00  (-0.1514972E+00)
 number of electron     179.9999996 magnetization      -0.5679415
 augmentation part       58.1386900 magnetization      -0.4116670

 Free energy of the ion-electron system (eV)
  ---------------------------------------------------
  alpha Z        PSCENC =       532.25742704
  Ewald energy   TEWEN  =     -8601.05107233
  -Hartree energ DENC   =     -1659.97739030
  -exchange      EXHF   =         0.00000000
  -V(xc)+E(xc)   XCENC  =      -667.08447040
  PAW double counting   =     13076.35030650   -12242.67303004
  entropy T*S    EENTRO =         0.00999786
  eigenvalues    EBANDS =       861.66789371
  atomic energy  EATOM  =      8465.11600846
  ---------------------------------------------------
  free energy    TOTEN  =      -235.38428085 eV

  energy without entropy =     -235.39427871  energy(sigma->0) =     -235.38761347


--------------------------------------------------------------------------------------------------------




--------------------------------------- Iteration      1(  17)  ---------------------------------------


    POTLOK:  cpu time    0.2471: real time    0.2471
    SETDIJ:  cpu time    0.3196: real time    0.3196
    TRIAL :  cpu time    8.9702: real time    9.0215
    CORREC:  cpu time    3.4124: real time    3.4583
    CHARGE:  cpu time    1.0650: real time    1.0650
    --------------------------------------------
      LOOP:  cpu time   14.0166: real time   14.1150

 eigenvalue-minimisations  :     0
 total energy-change (2. order) :-0.1516872E+00  (-0.1923467E+00)
 number of electron     179.9999996 magnetization      -0.6584515
 augmentation part       58.2466155 magnetization      -0.4713230

 Free energy of the ion-electron system (eV)
  ---------------------------------------------------
  alpha Z        PSCENC =       532.25742704
  Ewald energy   TEWEN  =     -8601.05107233
  -Hartree energ DENC   =     -1674.08340903
  -exchange      EXHF   =         0.00000000
  -V(xc)+E(xc)   XCENC  =      -666.48023818
  PAW double counting   =     13025.74158517   -12195.42823906
  entropy T*S    EENTRO =         0.00953875
  eigenvalues    EBANDS =       878.38197202
  atomic energy  EATOM  =      8465.11600846
  ---------------------------------------------------
  free energy    TOTEN  =      -235.53596805 eV

  energy without entropy =     -235.54550680  energy(sigma->0) =     -235.53914763


--------------------------------------------------------------------------------------------------------




--------------------------------------- Iteration      1(  18)  ---------------------------------------


    POTLOK:  cpu time    0.2471: real time    0.2471
    SETDIJ:  cpu time    0.3399: real time    0.3400
    TRIAL :  cpu time    8.8907: real time    9.6343
    CORREC:  cpu time    3.3944: real time    3.4182
    CHARGE:  cpu time    1.0845: real time    1.0845
    --------------------------------------------
      LOOP:  cpu time   13.9637: real time   14.7345

 eigenvalue-minimisations  :     0
 total energy-change (2. order) :-0.1923817E+00  (-0.9410821E-01)
 number of electron     179.9999996 magnetization      -0.7160260
 augmentation part       58.0239156 magnetization      -0.5098152

 Free energy of the ion-electron system (eV)
  ---------------------------------------------------
  alpha Z        PSCENC =       532.25742704
  Ewald energy   TEWEN  =     -8601.05107233
  -Hartree energ DENC   =     -1677.02193607
  -exchange      EXHF   =         0.00000000
  -V(xc)+E(xc)   XCENC  =      -666.17364422
  PAW double counting   =     12982.23603164   -12153.28071377
  entropy T*S    EENTRO =         0.00940835
  eigenvalues    EBANDS =       882.18001077
  atomic energy  EATOM  =      8465.11600846
  ---------------------------------------------------
  free energy    TOTEN  =      -235.72834974 eV

  energy without entropy =     -235.73775809  energy(sigma->0) =     -235.73148585


--------------------------------------------------------------------------------------------------------




--------------------------------------- Iteration      1(  19)  ---------------------------------------


    POTLOK:  cpu time    0.2471: real time    0.2471
    SETDIJ:  cpu time    0.3340: real time    0.3340
    TRIAL :  cpu time    9.6178: real time    9.6386
    CORREC:  cpu time    3.3427: real time    3.3522
    CHARGE:  cpu time    1.0570: real time    1.1437
    --------------------------------------------
      LOOP:  cpu time   14.6031: real time   14.7239

 eigenvalue-minimisations  :     0
 total energy-change (2. order) :-0.9383116E-01  (-0.4220429E-01)
 number of electron     179.9999996 magnetization      -0.7483831
 augmentation part       57.8622805 magnetization      -0.5304956

 Free energy of the ion-electron system (eV)
  ---------------------------------------------------
  alpha Z        PSCENC =       532.25742704
  Ewald energy   TEWEN  =     -8601.05107233
  -Hartree energ DENC   =     -1664.86122582
  -exchange      EXHF   =         0.00000000
  -V(xc)+E(xc)   XCENC  =      -666.49681832
  PAW double counting   =     12958.59358293   -12127.38119625
  entropy T*S    EENTRO =         0.00945139
  eigenvalues    EBANDS =       867.99170505
  atomic energy  EATOM  =      8465.11600846
  ---------------------------------------------------
  free energy    TOTEN  =      -235.82218090 eV

  energy without entropy =     -235.83163229  energy(sigma->0) =     -235.82533137


--------------------------------------------------------------------------------------------------------




--------------------------------------- Iteration      1(  20)  ---------------------------------------


    POTLOK:  cpu time    0.2507: real time    0.2507
    SETDIJ:  cpu time    0.3388: real time    0.3388
    TRIAL :  cpu time    8.9069: real time    8.9752
    CORREC:  cpu time    3.3253: real time    3.3785
    CHARGE:  cpu time    1.1022: real time    1.1808
    --------------------------------------------
      LOOP:  cpu time   13.9250: real time   14.1268

 eigenvalue-minimisations  :     0
 total energy-change (2. order) :-0.4213182E-01  (-0.7092357E-01)
 number of electron     179.9999996 magnetization      -0.8505324
 augmentation part       57.7905124 magnetization      -0.5927834

 Free energy of the ion-electron system (eV)
  ---------------------------------------------------
  alpha Z        PSCENC =       532.25742704
  Ewald energy   TEWEN  =     -8601.05107233
  -Hartree energ DENC   =     -1657.41501555
  -exchange      EXHF   =         0.00000000
  -V(xc)+E(xc)   XCENC  =      -666.71222561
  PAW double counting   =     12951.01554744   -12118.23076609
  entropy T*S    EENTRO =         0.00893968
  eigenvalues    EBANDS =       859.14633253
  atomic energy  EATOM  =      8465.11600846
  ---------------------------------------------------
  free energy    TOTEN  =      -235.86431272 eV

  energy without entropy =     -235.87325240  energy(sigma->0) =     -235.86729261


--------------------------------------------------------------------------------------------------------




--------------------------------------- Iteration      1(  21)  ---------------------------------------


    POTLOK:  cpu time    0.2491: real time    0.2491
    SETDIJ:  cpu time    0.3396: real time    0.3396
    TRIAL :  cpu time    8.9332: real time    8.9812
    CORREC:  cpu time    3.3333: real time    3.3343
    CHARGE:  cpu time    1.1378: real time    1.1507
    --------------------------------------------
      LOOP:  cpu time   13.9942: real time   14.0578

 eigenvalue-minimisations  :     0
 total energy-change (2. order) :-0.7093635E-01  (-0.3094632E-01)
 number of electron     179.9999996 magnetization      -0.8947164
 augmentation part       57.9071416 magnetization      -0.6271258

 Free energy of the ion-electron system (eV)
  ---------------------------------------------------
  alpha Z        PSCENC =       532.25742704
  Ewald energy   TEWEN  =     -8601.05107233
  -Hartree energ DENC   =     -1656.98187304
  -exchange      EXHF   =         0.00000000
  -V(xc)+E(xc)   XCENC  =      -666.64530834
  PAW double counting   =     12967.74402321   -12134.68942814
  entropy T*S    EENTRO =         0.00870686
  eigenvalues    EBANDS =       858.30603439
  atomic energy  EATOM  =      8465.11600846
  ---------------------------------------------------
  free energy    TOTEN  =      -235.93524907 eV

  energy without entropy =     -235.94395593  energy(sigma->0) =     -235.93815136


--------------------------------------------------------------------------------------------------------




--------------------------------------- Iteration      1(  22)  ---------------------------------------


    POTLOK:  cpu time    0.2476: real time    0.2476
    SETDIJ:  cpu time    0.3430: real time    0.3430
    TRIAL :  cpu time    8.9093: real time    9.6394
    CORREC:  cpu time    3.3473: real time    3.3710
    CHARGE:  cpu time    1.0868: real time    1.0870
    --------------------------------------------
      LOOP:  cpu time   13.9354: real time   14.6905

 eigenvalue-minimisations  :     0
 total energy-change (2. order) :-0.3096341E-01  (-0.1373181E-01)
 number of electron     179.9999996 magnetization      -0.9306101
 augmentation part       57.9813871 magnetization      -0.6543361

 Free energy of the ion-electron system (eV)
  ---------------------------------------------------
  alpha Z        PSCENC =       532.25742704
  Ewald energy   TEWEN  =     -8601.05107233
  -Hartree energ DENC   =     -1664.67383581
  -exchange      EXHF   =         0.00000000
  -V(xc)+E(xc)   XCENC  =      -666.33107416
  PAW double counting   =     12989.12395489   -12157.58490415
  entropy T*S    EENTRO =         0.00847468
  eigenvalues    EBANDS =       867.16857673
  atomic energy  EATOM  =      8465.11600846
  ---------------------------------------------------
  free energy    TOTEN  =      -235.96621248 eV

  energy without entropy =     -235.97468716  energy(sigma->0) =     -235.96903737


--------------------------------------------------------------------------------------------------------




--------------------------------------- Iteration      1(  23)  ---------------------------------------


    POTLOK:  cpu time    0.2476: real time    0.2476
    SETDIJ:  cpu time    0.3213: real time    0.3213
    TRIAL :  cpu time    8.9797: real time    8.9979
    CORREC:  cpu time    3.9717: real time    3.9730
    CHARGE:  cpu time    1.0757: real time    1.0760
    --------------------------------------------
[...]
  8.439  14.381   0.000  -0.000  -0.000   0.001  -0.001  -0.001
 14.381  24.508   0.001  -0.000  -0.000   0.002  -0.001  -0.001
  0.000   0.001   1.996  -0.000  -0.000   5.749  -0.000  -0.000
 -0.000  -0.000  -0.000   1.996   0.000  -0.000   5.748   0.000
 -0.000  -0.000  -0.000   0.000   1.996  -0.000   0.000   5.750
  0.001   0.002   5.749  -0.000  -0.000  16.476   0.000  -0.000
 -0.001  -0.001  -0.000   5.748   0.000   0.000  16.472   0.000
 -0.001  -0.001  -0.000   0.000   5.750  -0.000   0.000  16.477
 total augmentation occupancy for first ion, spin component:           1
  4.376  -1.251  -0.002   0.002  -0.004   0.001  -0.000  -0.000
 -1.251   0.377  -0.002   0.002   0.003  -0.000   0.000  -0.000
 -0.002  -0.002   1.432   0.015  -0.003  -0.102  -0.001   0.000
  0.002   0.002   0.015   1.511  -0.001  -0.001  -0.102   0.000
 -0.004   0.003  -0.003  -0.001   1.404   0.000   0.000  -0.100
  0.001  -0.000  -0.102  -0.001   0.000   0.008   0.000   0.000
 -0.000   0.000  -0.001  -0.102   0.000   0.000   0.007  -0.000
 -0.000  -0.000   0.000   0.000  -0.100   0.000  -0.000   0.008
 total augmentation occupancy for first ion, spin component:           2
 -0.069   0.022  -0.018   0.028  -0.019   0.001  -0.001   0.001
  0.022  -0.008  -0.001   0.004  -0.003   0.000  -0.000   0.000
 -0.018  -0.001  -0.021  -0.075  -0.013   0.002   0.001   0.000
  0.028   0.004  -0.075  -0.048   0.021   0.001   0.002  -0.000
 -0.019  -0.003  -0.013   0.021  -0.034   0.000  -0.000   0.002
  0.001   0.000   0.002   0.001   0.000  -0.000   0.000   0.000
 -0.001  -0.000   0.001   0.002  -0.000   0.000  -0.000  -0.000
  0.001   0.000   0.000  -0.000   0.002   0.000  -0.000  -0.000


------------------------ aborting loop because EDIFF is reached ----------------------------------------


 


 total charge     
 
# of ion       s       p       d       tot
------------------------------------------
    1        0.405   0.430   0.000   0.834
    2        0.405   0.430   0.000   0.835
    3        0.405   0.429   0.000   0.834
    4        0.405   0.429   0.000   0.834
    5        0.405   0.425   0.000   0.830
    6        0.405   0.425   0.000   0.830
    7        0.404   0.430   0.000   0.834
    8        0.405   0.431   0.000   0.835
    9        0.405   0.430   0.000   0.835
   10        0.405   0.430   0.000   0.834
   11        0.404   0.429   0.000   0.833
   12        0.404   0.429   0.000   0.833
   13        0.405   0.429   0.000   0.834
   14        0.405   0.430   0.000   0.835
   15        0.406   0.424   0.000   0.830
   16        0.406   0.424   0.000   0.830
   17        0.405   0.427   0.000   0.832
   18        0.405   0.427   0.000   0.832
   19        0.335   0.356   5.124   5.816
   20        0.335   0.359   5.119   5.813
   21        0.333   0.356   5.128   5.817
   22        0.331   0.352   5.144   5.827
   23        0.336   0.350   5.136   5.823
   24        0.328   0.358   5.131   5.817
   25        0.329   0.356   5.133   5.818
   26        0.334   0.353   5.136   5.822
   27        0.333   0.354   5.135   5.822
   28        0.337   0.351   5.129   5.818
   29        0.338   0.356   5.118   5.812
   30        0.335   0.353   5.133   5.821
   31        0.330   0.355   5.140   5.825
   32        0.335   0.354   5.124   5.813
   33        0.333   0.351   5.139   5.823
   34        0.337   0.353   5.126   5.816
   35        0.336   0.356   5.120   5.812
   36        0.330   0.354   5.142   5.826
--------------------------------------------------
tot         13.295  14.084  92.357 119.736
 


 magnetization (x)
 
# of ion       s       p       d       tot
------------------------------------------
    1       -0.005  -0.011   0.000  -0.016
    2       -0.005  -0.011   0.000  -0.016
    3        0.002   0.001   0.000   0.003
    4        0.002   0.001   0.000   0.002
    5        0.004   0.006   0.000   0.009
    6        0.003   0.006   0.000   0.009
    7       -0.009  -0.018   0.000  -0.027
    8       -0.009  -0.017   0.000  -0.026
    9        0.000  -0.000   0.000   0.000
   10        0.000  -0.001   0.000  -0.001
   11        0.000  -0.001   0.000  -0.001
   12        0.000  -0.001   0.000  -0.001
   13       -0.004  -0.009   0.000  -0.013
   14       -0.003  -0.008   0.000  -0.012
   15        0.007   0.017   0.000   0.024
   16        0.007   0.016   0.000   0.024
   17        0.006   0.011   0.000   0.016
   18        0.005   0.011   0.000   0.016
   19        0.025   0.016   2.325   2.365
   20        0.029   0.022   2.323   2.373
   21       -0.010  -0.013  -2.297  -2.320
   22        0.021   0.015   2.153   2.189
   23       -0.026  -0.008  -2.421  -2.456
   24        0.000   0.002   2.183   2.185
   25        0.008   0.006   2.225   2.239
   26       -0.020  -0.007  -2.312  -2.339
   27       -0.024  -0.020  -2.212  -2.256
   28       -0.024  -0.012  -2.450  -2.485
   29        0.037   0.026   2.439   2.503
   30        0.030   0.013   2.323   2.366
   31        0.015   0.018   2.085   2.117
   32       -0.017  -0.018  -2.410  -2.445
   33       -0.014  -0.008  -2.300  -2.323
   34       -0.020  -0.021  -2.402  -2.443
   35       -0.021  -0.024  -2.438  -2.484
   36        0.018   0.024   2.052   2.093
--------------------------------------------------
tot          0.008   0.001  -1.136  -1.128
 
    FORLOC:  cpu time    0.0286: real time    0.0286
    FORNL :  cpu time   12.8956: real time   12.9375
    STRESS:  cpu time   18.3856: real time   18.6409
    FORCOR:  cpu time    0.2688: real time    0.2711
    OFIELD:  cpu time    0.0013: real time    0.0013

  FORCE on cell =-STRESS in cart. coord.  units (eV):
  Direction    XX          YY          ZZ          XY          YZ          ZX
  --------------------------------------------------------------------------------------
  Alpha Z   532.25743   532.25743   532.25743
  Ewald   -2702.40749 -2702.40749 -3196.26924    -0.00000    -0.00000    -0.00000
  Hartree   721.66031   720.54065   223.91055     0.05067    -0.00000    -0.00000
  E(xc)    -760.40050  -760.07886  -759.72109    -0.02989     0.00000    -0.00000
  Local     246.37248   249.21297  1265.56174    -0.17146    -0.00000     0.00000
  n-local  -111.66302  -110.30422  -118.78222    -0.07464    -0.09863    -0.16657
  augment   522.50308   521.25362   513.38188     0.05354     0.00001     0.00001
  Kinetic  1556.69038  1555.52607  1540.85434     0.11062     0.46666     0.19008
  Fock        0.00000     0.00000     0.00000     0.00000     0.00000     0.00000
  -------------------------------------------------------------------------------------
  Total       5.01266     6.00016     1.19338    -0.06117     0.00000     0.00000
  in kB      16.96939    20.31235     4.03996    -0.20707     0.00000     0.00000
  external pressure =       13.77 kB  Pullay stress =        0.00 kB


 VOLUME and BASIS-vectors are now :
 -----------------------------------------------------------------------------
  energy-cutoff  :      404.80
  volume of cell :      473.27
      direct lattice vectors                 reciprocal lattice vectors
     8.250148166  0.000000000  0.000000000     0.121209944  0.000000000  0.000000000
     0.000000000  8.250148166  0.000000000     0.000000000  0.121209944  0.000000000
     0.000000000  0.000000000  6.953274261     0.000000000  0.000000000  0.143817137

  length of vectors
     8.250148166  8.250148166  6.953274261     0.121209944  0.121209944  0.143817137


 FORCES acting on ions:
    Electron-Ion                     Ewald-Force                    Non-Local-Force
 -----------------------------------------------------------------------------------------------
   0.178E+00 -.154E+00 0.852E-01   -.239E-08 -.239E-08 0.411E-08   -.222E-01 0.857E-01 -.828E-01
   0.178E+00 -.154E+00 -.852E-01   -.239E-08 -.239E-08 0.411E-08   -.222E-01 0.857E-01 0.828E-01
   -.258E-01 -.326E-01 -.631E-02   -.239E-08 -.802E-09 0.411E-08   -.184E-01 0.239E-01 0.690E-02
   -.258E-01 -.326E-01 0.631E-02   -.239E-08 -.802E-09 0.411E-08   -.184E-01 0.239E-01 -.690E-02
   0.145E+00 0.159E+00 0.372E-01   -.239E-08 0.631E-08 0.411E-08   -.608E-01 -.600E-01 0.973E-02
   0.145E+00 0.159E+00 -.372E-01   -.239E-08 0.631E-08 0.411E-08   -.608E-01 -.600E-01 -.973E-02
   0.259E-01 0.523E-01 0.467E-02   -.802E-09 -.239E-08 0.411E-08   0.233E-02 -.180E-01 -.108E-01
   0.259E-01 0.523E-01 -.467E-02   -.802E-09 -.239E-08 0.411E-08   0.233E-02 -.180E-01 0.108E-01
   -.186E-02 -.104E-01 -.295E-01   -.802E-09 -.802E-09 0.411E-08   0.993E-02 -.110E-02 0.191E-01
   -.186E-02 -.104E-01 0.295E-01   -.802E-09 -.802E-09 0.411E-08   0.993E-02 -.110E-02 -.191E-01
   -.813E-01 -.373E-02 -.428E-02   -.802E-09 0.631E-08 0.411E-08   0.383E-01 0.236E-02 -.117E-01
   -.813E-01 -.373E-02 0.428E-02   -.802E-09 0.631E-08 0.411E-08   0.383E-01 0.236E-02 0.117E-01
   -.169E+00 0.182E+00 -.735E-01   0.631E-08 -.239E-08 0.411E-08   0.105E-01 -.531E-01 0.454E-01
   -.169E+00 0.182E+00 0.735E-01   0.631E-08 -.239E-08 0.411E-08   0.105E-01 -.531E-01 -.454E-01
   0.606E-02 -.141E+00 0.680E-02   0.631E-08 -.802E-09 0.411E-08   -.197E-03 0.104E+00 -.601E-01
   0.606E-02 -.141E+00 -.680E-02   0.631E-08 -.802E-09 0.411E-08   -.197E-03 0.104E+00 0.601E-01
   -.588E-01 -.451E-01 -.648E-01   0.631E-08 0.631E-08 0.411E-08   0.303E-01 -.887E-01 0.473E-01
   -.588E-01 -.451E-01 0.648E-01   0.631E-08 0.631E-08 0.411E-08   0.303E-01 -.887E-01 -.473E-01
   0.127E+00 -.213E+00 -.535E-10   -.169E-07 -.169E-07 -.411E-08   -.101E+00 0.172E+00 0.000E+00
   0.149E+00 -.137E+00 -.298E-08   -.169E-07 -.169E-07 -.411E-08   -.147E+00 0.135E+00 0.000E+00
   0.670E-01 0.244E+00 -.644E-09   -.169E-07 0.802E-09 -.411E-08   -.111E+00 -.139E+00 0.000E+00
   0.142E+00 0.241E+00 -.381E-08   -.169E-07 0.802E-09 -.411E-08   -.142E+00 -.142E+00 0.000E+00
   -.301E+00 -.262E+00 0.645E-09   -.169E-07 0.130E-07 -.411E-08   0.143E+00 0.141E-01 0.000E+00
   -.941E-01 -.136E+00 -.373E-08   -.169E-07 0.130E-07 -.411E-08   0.488E-01 0.100E+00 0.000E+00
   0.117E+00 -.261E+00 -.450E-08   0.802E-09 -.169E-07 -.411E-08   -.787E-01 0.146E+00 0.000E+00
   0.290E+00 0.160E+00 -.144E-08   0.802E-09 -.169E-07 -.411E-08   -.939E-01 0.881E-01 0.000E+00
   -.343E-02 -.397E-01 -.467E-08   0.802E-09 0.802E-09 -.411E-08   -.382E-01 0.125E+00 0.000E+00
   0.491E+00 -.395E+00 -.206E-08   0.802E-09 0.802E-09 -.411E-08   -.173E+00 0.215E+00 0.000E+00
   -.279E+00 0.644E+00 -.346E-08   0.802E-09 0.130E-07 -.411E-08   0.269E+00 -.352E+00 0.000E+00
   -.191E+00 0.102E+00 -.180E-08   0.802E-09 0.130E-07 -.411E-08   0.144E+00 -.161E+00 0.000E+00
   -.252E+00 0.121E+00 -.216E-08   0.130E-07 -.169E-07 -.411E-08   0.185E+00 -.118E+00 0.000E+00
   -.444E+00 0.541E+00 -.198E-08   0.130E-07 -.169E-07 -.411E-08   0.229E+00 -.248E+00 0.000E+00
   -.255E-01 0.388E+00 -.247E-08   0.130E-07 0.802E-09 -.411E-08   0.108E+00 -.186E+00 0.000E+00
   -.571E+00 -.595E+00 -.255E-08   0.130E-07 0.802E-09 -.411E-08   0.281E+00 0.301E+00 0.000E+00
   0.444E+00 -.462E+00 -.143E-08   0.130E-07 0.130E-07 -.411E-08   -.262E+00 0.163E+00 0.000E+00
   0.294E+00 0.395E-02 -.241E-08   0.130E-07 0.130E-07 -.411E-08   -.238E+00 -.563E-01 0.000E+00
 -----------------------------------------------------------------------------------------------
   -.195E-02 -.468E-01 -.781E-07   -.197E-14 0.275E-13 0.265E-14   0.188E-02 0.468E-01 0.000E+00
 
 
 POSITION                                       TOTAL-FORCE (eV/Angst)
 -----------------------------------------------------------------------------------
      0.00000      0.00000      0.00000         0.157245     -0.076417      0.009610
      0.00000      0.00000      3.47664         0.157245     -0.076417     -0.009610
      0.00000      2.75005      0.00000        -0.043428     -0.010797     -0.000414
      0.00000      2.75005      3.47664        -0.043428     -0.010797      0.000414
      0.00000      5.50010      0.00000         0.090086      0.104869      0.045423
      0.00000      5.50010      3.47664         0.090086      0.104869     -0.045423
      2.75005      0.00000      0.00000         0.028301      0.036205     -0.005063
      2.75005      0.00000      3.47664         0.028301      0.036205      0.005063
      2.75005      2.75005      0.00000         0.007076     -0.011329     -0.012174
      2.75005      2.75005      3.47664         0.007076     -0.011329      0.012174
      2.75005      5.50010      0.00000        -0.046551     -0.001572     -0.014670
      2.75005      5.50010      3.47664        -0.046551     -0.001572      0.014670
      5.50010      0.00000      0.00000        -0.159299      0.134239     -0.032080
      5.50010      0.00000      3.47664        -0.159299      0.134239      0.032080
      5.50010      2.75005      0.00000         0.006212     -0.046788     -0.047483
      5.50010      2.75005      3.47664         0.006212     -0.046788      0.047483
      5.50010      5.50010      0.00000        -0.030863     -0.126605     -0.021748
      5.50010      5.50010      3.47664        -0.030863     -0.126605      0.021748
      1.37502      1.37502      1.73832         0.027344     -0.044113      0.000000
      1.37502      1.37502      5.21496         0.001407     -0.004606      0.000000
      1.37502      4.12507      1.73832        -0.044650      0.098662      0.000000
      1.37502      4.12507      5.21496         0.001876      0.103333      0.000000
      1.37502      6.87512      1.73832        -0.158397     -0.251337      0.000000
      1.37502      6.87512      5.21496        -0.047259     -0.037638      0.000000
      4.12507      1.37502      1.73832         0.039668     -0.113491      0.000000
      4.12507      1.37502      5.21496         0.197374      0.249072      0.000000
      4.12507      4.12507      1.73832        -0.036502      0.086993      0.000000
      4.12507      4.12507      5.21496         0.334087     -0.181914      0.000000
      4.12507      6.87512      1.73832        -0.012804      0.304153      0.000000
      4.12507      6.87512      5.21496        -0.049835     -0.062100      0.000000
      6.87512      1.37502      1.73832        -0.070547      0.005522      0.000000
      6.87512      1.37502      5.21496        -0.214042      0.305394      0.000000
      6.87512      4.12507      1.73832         0.078867      0.212069      0.000000
      6.87512      4.12507      5.21496        -0.303732     -0.307563      0.000000
      6.87512      6.87512      1.73832         0.177471     -0.311485      0.000000
      6.87512      6.87512      5.21496         0.062113     -0.054560      0.000000
 -----------------------------------------------------------------------------------
    total drift:                               -0.000073     -0.000050     -0.000000


--------------------------------------------------------------------------------------------------------



  FREE ENERGIE OF THE ION-ELECTRON SYSTEM (eV)
  ---------------------------------------------------
  free  energy   TOTEN  =      -236.05671741 eV

  energy  without entropy=     -236.06358769  energy(sigma->0) =     -236.05900750
 


--------------------------------------------------------------------------------------------------------


    POTLOK:  cpu time    0.5916: real time    0.6353


--------------------------------------------------------------------------------------------------------


     LOOP+:  cpu time  955.6666: real time  974.8949
    4ORBIT:  cpu time    0.0000: real time    0.0000
 


 total charge     
 
# of ion       s       p       d       tot
------------------------------------------
    1        0.405   0.430   0.000   0.834
    2        0.405   0.430   0.000   0.835
    3        0.405   0.429   0.000   0.834
    4        0.405   0.429   0.000   0.834
    5        0.405   0.425   0.000   0.830
    6        0.405   0.425   0.000   0.830
    7        0.404   0.430   0.000   0.834
    8        0.405   0.431   0.000   0.835
    9        0.405   0.430   0.000   0.835
   10        0.405   0.430   0.000   0.834
   11        0.404   0.429   0.000   0.833
   12        0.404   0.429   0.000   0.833
   13        0.405   0.429   0.000   0.834
   14        0.405   0.430   0.000   0.835
   15        0.406   0.424   0.000   0.830
   16        0.406   0.424   0.000   0.830
   17        0.405   0.427   0.000   0.832
   18        0.405   0.427   0.000   0.832
   19        0.335   0.356   5.124   5.816
   20        0.335   0.359   5.119   5.813
   21        0.333   0.356   5.128   5.817
   22        0.331   0.352   5.144   5.827
   23        0.336   0.350   5.136   5.823
   24        0.328   0.358   5.131   5.817
   25        0.329   0.356   5.133   5.818
   26        0.334   0.353   5.136   5.822
   27        0.333   0.354   5.135   5.822
   28        0.337   0.351   5.129   5.818
   29        0.338   0.356   5.118   5.812
   30        0.335   0.353   5.133   5.821
   31        0.330   0.355   5.140   5.825
   32        0.335   0.354   5.124   5.813
   33        0.333   0.351   5.139   5.823
   34        0.337   0.353   5.126   5.816
   35        0.336   0.356   5.120   5.812
   36        0.330   0.354   5.142   5.826
--------------------------------------------------
tot         13.295  14.084  92.357 119.736
 


 magnetization (x)
 
# of ion       s       p       d       tot
------------------------------------------
    1       -0.005  -0.011   0.000  -0.016
    2       -0.005  -0.011   0.000  -0.016
    3        0.002   0.001   0.000   0.003
    4        0.002   0.001   0.000   0.002
    5        0.004   0.006   0.000   0.009
    6        0.003   0.006   0.000   0.009
    7       -0.009  -0.018   0.000  -0.027
    8       -0.009  -0.017   0.000  -0.026
    9        0.000  -0.000   0.000   0.000
   10        0.000  -0.001   0.000  -0.001
   11        0.000  -0.001   0.000  -0.001
   12        0.000  -0.001   0.000  -0.001
   13       -0.004  -0.009   0.000  -0.013
   14       -0.003  -0.008   0.000  -0.012
   15        0.007   0.017   0.000   0.024
   16        0.007   0.016   0.000   0.024
   17        0.006   0.011   0.000   0.016
   18        0.005   0.011   0.000   0.016
   19        0.025   0.016   2.325   2.365
   20        0.029   0.022   2.323   2.373
   21       -0.010  -0.013  -2.297  -2.320
   22        0.021   0.015   2.153   2.189
   23       -0.026  -0.008  -2.421  -2.456
   24        0.000   0.002   2.183   2.185
   25        0.008   0.006   2.225   2.239
   26       -0.020  -0.007  -2.312  -2.339
   27       -0.024  -0.020  -2.212  -2.256
   28       -0.024  -0.012  -2.450  -2.485
   29        0.037   0.026   2.439   2.503
   30        0.030   0.013   2.323   2.366
   31        0.015   0.018   2.085   2.117
   32       -0.017  -0.018  -2.410  -2.445
   33       -0.014  -0.008  -2.300  -2.323
   34       -0.020  -0.021  -2.402  -2.443
   35       -0.021  -0.024  -2.438  -2.484
   36        0.018   0.024   2.052   2.093
--------------------------------------------------
tot          0.008   0.001  -1.136  -1.128
 

 total amount of memory used by VASP MPI-rank0   740218. kBytes
=======================================================================

   base      :      30000. kBytes
   nonl-proj :      34307. kBytes
   fftplans  :      21726. kBytes
   grid      :      14732. kBytes
   one-center:        279. kBytes
   wavefun   :     639174. kBytes
 
  
  
 General timing and accounting informations for this job:
 ========================================================
  
                  Total CPU time used (sec):      981.708
                            User time (sec):      961.811
                          System time (sec):       19.897
                         Elapsed time (sec):     1002.759
  
                   Maximum memory used (kb):      881560.
                   Average memory used (kb):           0.
  
                          Minor page faults:       438466
                          Major page faults:           14
                 Voluntary context switches:         3308
