   36   36    1    2
  0.1314651E+02  0.8250148E-09  0.8250148E-09  0.6953274E-09  0.2000000E-15
  1.000000000000000E-004
  CAR 
 AlMn_pv                                 
    180     24    112
 
  0.0000000E+00  0.0000000E+00  0.0000000E+00  0.6666667E-02
    1       -2.527874     -2.518861   1.000000   1.000000
    2       -0.349689     -0.346768   1.000000   1.000000
    3       -0.349148     -0.341228   1.000000   1.000000
    4       -0.341255     -0.341228   1.000000   1.000000
    5       -0.341255     -0.314207   1.000000   1.000000
    6       -0.128980     -0.138712   1.000000   1.000000
    7        1.365999      1.376062   1.000000   1.000000
    8        1.365999      1.378868   1.000000   1.000000
    9        1.377178      1.395426   1.000000   1.000000
   10        1.381146      1.395426   1.000000   1.000000
   11        1.400672      1.426421   1.000000   1.000000
   12        1.564778      1.575315   1.000000   1.000000
   13        1.577388      1.575315   1.000000   1.000000
   14        1.584700      1.621683   1.000000   1.000000
   15        1.584700      1.621731   1.000000   1.000000
   16        2.737107      2.755888   1.000000   1.000000
   17        2.737107      2.767220   1.000000   1.000000
   18        2.763492      2.802746   1.000000   1.000000
   19        2.773338      2.802746   1.000000   1.000000
   20        3.493268      3.566677   1.000000   1.000000
   21        3.539441      3.566677   1.000000   1.000000
   22        3.550612      3.569224   1.000000   1.000000
   23        3.550612      3.618202   1.000000   1.000000
   24        4.117603      4.189582   1.000000   1.000000
   25        4.194032      4.189582   1.000000   1.000000
   26        4.199546      4.250180   1.000000   1.000000
   27        4.199546      4.451186   1.000000   1.000000
   28        4.559491      4.623914   1.000000   1.000000
   29        4.584650      4.623914   1.000000   1.000000
   30        4.622385      4.652732   1.000000   1.000000
   31        4.622385      4.662877   1.000000   1.000000
   32        4.735941      4.717138   1.000000   1.000000
   33        4.735941      4.756807   1.000000   1.000000
   34        4.767919      4.875950   1.000000   1.000000
   35        4.769108      4.886028   1.000000   1.000000
   36        4.779104      4.886028   1.000000   1.000000
   37        4.780393      5.146293   1.000000   1.000000
   38        5.093961      5.158330   1.000000   1.000000
   39        5.162794      5.193402   1.000000   1.000000
   40        5.175057      5.227289   1.000000   1.000000
   41        5.187471      5.227289   1.000000   1.000000
   42        5.187471      5.277841   1.000000   1.000000
   43        5.190452      5.315146   1.000000   1.000000
   44        5.228728      5.315146   1.000000   1.000000
   45        5.228728      5.316477   1.000000   1.000000
   46        5.420099      5.475099   1.000000   1.000000
   47        5.427001      5.475099   1.000000   1.000000
   48        5.464812      5.543930   1.000000   1.000000
   49        5.464812      5.751818   1.000000   1.000000
   50        5.693266      6.054616   1.000000   1.000000
   51        5.693266      6.073136   1.000000   1.000000
   52        5.695621      6.108623   1.000000   1.000000
   53        6.082059      6.108623   1.000000   1.000000
   54        6.083914      6.164928   1.000000   1.000000
   55        6.133188      6.164928   1.000000   1.000000
   56        6.133188      6.165917   1.000000   1.000000
   57        6.139269      6.311383   1.000000   1.000000
   58        6.172851      6.315461   1.000000   1.000000
   59        6.177212      6.327817   1.000000   1.000000
   60        6.177212      6.329934   1.000000   1.000000
   61        6.326193      6.329934   1.000000   1.000000
   62        6.331096      6.365121   1.000000   1.000000
   63        6.414216      6.428386   1.000000   1.000000
   64        6.417877      6.428386   1.000000   1.000000
   65        6.430677      6.437695   1.000000   1.000000
   66        6.435658      6.480247   1.000000   1.000000
   67        6.435658      6.481266   1.000000   1.000000
   68        6.445065      6.481266   1.000000   1.000000
   69        6.463660      6.520345   1.000000   1.000000
   70        6.491508      6.525371   1.000000   1.000000
   71        6.491508      6.525371   1.000000   1.000000
   72        6.516193      6.572387   1.000000   1.000000
   73        6.516193      6.572387   1.000000   1.000000
   74        6.519122      6.663114   1.000000   1.000000
   75        6.519122      6.676660   1.000000   1.000000
   76        6.553133      6.701058   1.000000   1.000000
   77        6.679357      6.914410   1.000000   1.000000
   78        6.681580      6.914410   1.000000   1.000000
   79        6.685185      6.938649   1.000000   1.000000
   80        6.685185      6.942460   1.000000   1.000000
   81        6.757652      7.002541   1.000000   1.000002
   82        6.757652      7.148576   1.000000   1.000170
   83        6.879397      7.557221   1.000000   1.001501
   84        6.955355      7.557221   1.000000   1.001501
   85        6.965418      7.610054   1.000001   0.913343
   86        7.129099      7.675438   1.000100   0.708069
   87        7.143600      7.675438   1.000148   0.708068
   88        7.377641      7.808064   1.016586   0.186301
   89        7.579248      7.822102   0.972608   0.143221
   90        7.579248      7.959514   0.972608  -0.034831
   91        7.586961      7.963165   0.960124  -0.035141
   92        7.828981      7.963165   0.124697  -0.035141
   93        7.943759      8.058442  -0.031829  -0.020381
   94        7.975176      8.161925  -0.035420  -0.004368
   95        7.975176      8.215425  -0.035420  -0.001493
   96        8.131502      8.215426  -0.007397  -0.001493
   97        8.131505      8.566550  -0.007397  -0.000000
   98        8.156638      8.598506  -0.004811  -0.000000
   99        8.216149      8.617517  -0.001469  -0.000000
  100        8.216155      8.638542  -0.001469  -0.000000
  101        8.395980      8.638785  -0.000012  -0.000000
  102        8.408484      8.670418  -0.000008  -0.000000
  103        8.613653      8.725370  -0.000000  -0.000000
  104        8.621588      8.725887  -0.000000  -0.000000
  105        8.654054      8.728993  -0.000000  -0.000000
  106        8.654529      8.729056  -0.000000  -0.000000
  107        8.662092      8.857586  -0.000000  -0.000000
  108        8.665535      8.888372  -0.000000  -0.000000
  109        8.759937      8.957300  -0.000000  -0.000000
  110        8.842644      9.039245  -0.000000  -0.000000
  111        8.886269      9.094564  -0.000000  -0.000000
  112        9.035556      9.123098  -0.000000  -0.000000
 
  0.2000000E+00  0.0000000E+00  0.0000000E+00  0.2666667E-01
    1       -2.437314     -2.428325   1.000000   1.000000
    2       -1.111197     -1.102369   1.000000   1.000000
    3       -0.266450     -0.258195   1.000000   1.000000
    4       -0.258661     -0.247692   1.000000   1.000000
    5       -0.063322     -0.072532   1.000000   1.000000
    6        0.557956      0.568386   1.000000   1.000000
    7        0.872487      0.873359   1.000000   1.000000
    8        0.923164      0.935246   1.000000   1.000000
    9        0.923749      0.941561   1.000000   1.000000
   10        1.428412      1.440398   1.000000   1.000000
   11        1.451151      1.458226   1.000000   1.000000
   12        1.476901      1.521943   1.000000   1.000000
   13        1.903040      1.925034   1.000000   1.000000
   14        2.287108      2.320277   1.000000   1.000000
   15        2.299051      2.320609   1.000000   1.000000
   16        2.304581      2.332882   1.000000   1.000000
   17        2.312831      2.336057   1.000000   1.000000
   18        2.817914      2.862192   1.000000   1.000000
   19        3.201175      3.242399   1.000000   1.000000
   20        3.211798      3.252995   1.000000   1.000000
   21        3.586168      3.636279   1.000000   1.000000
   22        3.615884      3.660571   1.000000   1.000000
   23        3.724267      3.752170   1.000000   1.000000
   24        4.092068      4.159274   1.000000   1.000000
   25        4.154748      4.161782   1.000000   1.000000
   26        4.161379      4.214477   1.000000   1.000000
   27        4.166272      4.346924   1.000000   1.000000
   28        4.293332      4.377450   1.000000   1.000000
   29        4.524735      4.569161   1.000000   1.000000
   30        4.539934      4.599292   1.000000   1.000000
   31        4.608439      4.664565   1.000000   1.000000
   32        4.635723      4.692781   1.000000   1.000000
   33        4.694502      4.830252   1.000000   1.000000
   34        4.807825      4.898803   1.000000   1.000000
   35        4.830413      5.012135   1.000000   1.000000
   36        4.937061      5.031879   1.000000   1.000000
   37        4.950900      5.040119   1.000000   1.000000
   38        5.000068      5.041192   1.000000   1.000000
   39        5.062485      5.100428   1.000000   1.000000
   40        5.096158      5.156457   1.000000   1.000000
   41        5.098256      5.182933   1.000000   1.000000
   42        5.120847      5.185696   1.000000   1.000000
   43        5.177609      5.210109   1.000000   1.000000
   44        5.187754      5.325050   1.000000   1.000000
   45        5.305248      5.401227   1.000000   1.000000
   46        5.457480      5.513510   1.000000   1.000000
   47        5.503083      5.568259   1.000000   1.000000
   48        5.516123      5.607697   1.000000   1.000000
   49        5.558360      5.714083   1.000000   1.000000
   50        5.593264      5.863688   1.000000   1.000000
   51        5.671869      5.997258   1.000000   1.000000
   52        5.705889      6.033325   1.000000   1.000000
   53        5.973828      6.051233   1.000000   1.000000
   54        5.997747      6.147846   1.000000   1.000000
   55        6.002446      6.175897   1.000000   1.000000
   56        6.066333      6.186734   1.000000   1.000000
   57        6.080874      6.255205   1.000000   1.000000
   58        6.178251      6.267007   1.000000   1.000000
   59        6.231058      6.283267   1.000000   1.000000
   60        6.246041      6.293298   1.000000   1.000000
   61        6.271506      6.332009   1.000000   1.000000
   62        6.302392      6.360527   1.000000   1.000000
   63        6.345303      6.384921   1.000000   1.000000
   64        6.361694      6.425015   1.000000   1.000000
   65        6.369621      6.461915   1.000000   1.000000
   66        6.385989      6.490892   1.000000   1.000000
   67        6.417745      6.516157   1.000000   1.000000
   68        6.422087      6.555436   1.000000   1.000000
   69        6.480645      6.555941   1.000000   1.000000
   70        6.514821      6.570902   1.000000   1.000000
   71        6.525684      6.588139   1.000000   1.000000
   72        6.551357      6.655432   1.000000   1.000000
   73        6.571057      6.674227   1.000000   1.000000
   74        6.593731      6.695121   1.000000   1.000000
   75        6.594395      6.770614   1.000000   1.000000
   76        6.608387      6.784950   1.000000   1.000000
   77        6.645407      6.794451   1.000000   1.000000
   78        6.673151      6.878489   1.000000   1.000000
   79        6.721408      6.979815   1.000000   1.000001
   80        6.784458      7.007156   1.000000   1.000002
   81        6.786748      7.056762   1.000000   1.000012
   82        6.836287      7.075353   1.000000   1.000020
   83        6.879797      7.267271   1.000000   1.002711
   84        7.007411      7.404713   1.000002   1.022567
   85        7.040235      7.660818   1.000007   0.763973
   86        7.094331      7.666434   1.000036   0.741534
   87        7.124720      7.720164   1.000088   0.526422
   88        7.159727      7.820469   1.000227   0.148137
   89        7.364509      7.833201   1.013972   0.113323
   90        7.604190      7.952892   0.926082  -0.033869
   91        7.663091      7.971397   0.755640  -0.035457
   92        7.844670      8.036115   0.085436  -0.025532
   93        7.934526      8.042454  -0.028645  -0.024086
   94        7.947051      8.132060  -0.032701  -0.007358
   95        7.973347      8.330626  -0.035450  -0.000084
   96        8.005464      8.414507  -0.032057  -0.000007
   97        8.126739      8.438683  -0.008027  -0.000003
   98        8.161120      8.468024  -0.004415  -0.000001
   99        8.284244      8.486978  -0.000294  -0.000001
  100        8.354231      8.594122  -0.000043  -0.000000
  101        8.377170      8.604044  -0.000021  -0.000000
  102        8.480878      8.655943  -0.000001  -0.000000
  103        8.574204      8.743026  -0.000000  -0.000000
  104        8.583955      8.838712  -0.000000  -0.000000
  105        8.650172      8.842503  -0.000000  -0.000000
  106        8.670290      8.858604  -0.000000  -0.000000
  107        8.759517      8.901848  -0.000000  -0.000000
  108        8.802254      8.906529  -0.000000  -0.000000
  109        8.830936      8.926895  -0.000000  -0.000000
  110        8.863158      8.961192  -0.000000  -0.000000
  111        8.873595      9.045797  -0.000000  -0.000000
  112        8.951009      9.060568  -0.000000  -0.000000
 
  0.4000000E+00  0.0000000E+00  0.0000000E+00  0.2666667E-01
    1       -2.167280     -2.158310   1.000000   1.000000
    2       -1.722364     -1.713628   1.000000   1.000000
    3       -0.020232     -0.011793   1.000000   1.000000
    4       -0.013605     -0.002151   1.000000   1.000000
    5        0.131375      0.123813   1.000000   1.000000
    6        0.381385      0.391338   1.000000   1.000000
    7        0.385678      0.399629   1.000000   1.000000
    8        0.448232      0.443854   1.000000   1.000000
    9        1.568520      1.584361   1.000000   1.000000
   10        1.612063      1.626041   1.000000   1.000000
   11        1.633953      1.643177   1.000000   1.000000
   12        1.757442      1.802500   1.000000   1.000000
   13        1.910421      1.925517   1.000000   1.000000
   14        1.927792      1.942289   1.000000   1.000000
   15        2.213977      2.257310   1.000000   1.000000
   16        2.301974      2.340215   1.000000   1.000000
   17        2.670305      2.685215   1.000000   1.000000
   18        2.910338      2.955219   1.000000   1.000000
   19        2.948560      3.013211   1.000000   1.000000
   20        3.545067      3.595800   1.000000   1.000000
   21        3.582817      3.640984   1.000000   1.000000
   22        3.771078      3.822626   1.000000   1.000000
   23        3.786023      3.835954   1.000000   1.000000
   24        3.982897      4.045342   1.000000   1.000000
   25        4.004213      4.051176   1.000000   1.000000
   26        4.047950      4.112746   1.000000   1.000000
   27        4.073637      4.135066   1.000000   1.000000
   28        4.302691      4.347244   1.000000   1.000000
   29        4.343553      4.406046   1.000000   1.000000
   30        4.400821      4.514418   1.000000   1.000000
   31        4.515029      4.678316   1.000000   1.000000
   32        4.658125      4.706834   1.000000   1.000000
   33        4.695987      4.774497   1.000000   1.000000
   34        4.755094      4.777135   1.000000   1.000000
   35        4.864742      4.913390   1.000000   1.000000
   36        4.896289      4.961854   1.000000   1.000000
   37        4.912211      4.966822   1.000000   1.000000
   38        4.938332      5.051311   1.000000   1.000000
   39        5.067487      5.090603   1.000000   1.000000
   40        5.083282      5.116553   1.000000   1.000000
   41        5.097312      5.205198   1.000000   1.000000
   42        5.152248      5.210376   1.000000   1.000000
   43        5.171571      5.217339   1.000000   1.000000
   44        5.181425      5.345879   1.000000   1.000000
   45        5.241171      5.358710   1.000000   1.000000
   46        5.458276      5.623115   1.000000   1.000000
   47        5.553572      5.630148   1.000000   1.000000
   48        5.608484      5.652841   1.000000   1.000000
   49        5.637164      5.707002   1.000000   1.000000
   50        5.640532      5.811588   1.000000   1.000000
   51        5.698400      5.869227   1.000000   1.000000
   52        5.770655      6.005194   1.000000   1.000000
   53        5.803397      6.034926   1.000000   1.000000
   54        5.849969      6.063046   1.000000   1.000000
   55        5.962849      6.145759   1.000000   1.000000
   56        6.035306      6.146227   1.000000   1.000000
   57        6.056867      6.163481   1.000000   1.000000
   58        6.118149      6.214895   1.000000   1.000000
   59        6.174116      6.215193   1.000000   1.000000
   60        6.174807      6.286266   1.000000   1.000000
   61        6.208417      6.295776   1.000000   1.000000
   62        6.231324      6.302555   1.000000   1.000000
   63        6.239081      6.373089   1.000000   1.000000
   64        6.316451      6.401641   1.000000   1.000000
   65        6.316595      6.514945   1.000000   1.000000
   66        6.332516      6.558638   1.000000   1.000000
   67        6.360673      6.568909   1.000000   1.000000
   68        6.411844      6.572220   1.000000   1.000000
   69        6.430255      6.595155   1.000000   1.000000
   70        6.468959      6.604657   1.000000   1.000000
   71        6.542636      6.606644   1.000000   1.000000
   72        6.558814      6.690922   1.000000   1.000000
   73        6.600088      6.723901   1.000000   1.000000
   74        6.667273      6.728164   1.000000   1.000000
   75        6.670778      6.753015   1.000000   1.000000
   76        6.725229      6.753452   1.000000   1.000000
   77        6.739666      6.864275   1.000000   1.000000
   78        6.749876      6.920181   1.000000   1.000000
   79        6.797241      6.954024   1.000000   1.000000
   80        6.859523      6.970596   1.000000   1.000001
   81        6.873062      7.011975   1.000000   1.000003
   82        6.924087      7.090524   1.000000   1.000032
   83        6.931337      7.305538   1.000000   1.005589
   84        6.944730      7.417289   1.000000   1.025447
   85        6.971438      7.656376   1.000001   0.777080
   86        6.999531      7.663327   1.000002   0.755149
   87        7.030252      7.804550   1.000005   0.195641
   88        7.227374      7.830165   1.001170   0.121115
   89        7.378157      7.865103   1.016719   0.043496
   90        7.614403      7.897069   0.902587  -0.001813
   91        7.657150      7.921160   0.776511  -0.021826
   92        7.707722      8.012172   0.581003  -0.030780
   93        7.879373      8.060954   0.020437  -0.019836
   94        7.916048      8.098270  -0.018477  -0.012347
   95        7.973143      8.113870  -0.035451  -0.009825
   96        8.090211      8.390537  -0.013823  -0.000014
   97        8.130117      8.455514  -0.007593  -0.000002
   98        8.135544      8.456924  -0.006940  -0.000002
   99        8.218938      8.461787  -0.001386  -0.000001
  100        8.238122      8.579904  -0.000894  -0.000000
  101        8.310629      8.633682  -0.000146  -0.000000
  102        8.453355      8.640305  -0.000002  -0.000000
  103        8.477233      8.684745  -0.000001  -0.000000
  104        8.539203      8.689355  -0.000000  -0.000000
  105        8.621657      8.769544  -0.000000  -0.000000
  106        8.649042      8.833506  -0.000000  -0.000000
  107        8.734703      8.862773  -0.000000  -0.000000
  108        8.794378      8.887285  -0.000000  -0.000000
  109        8.851339      8.900844  -0.000000  -0.000000
  110        8.859570      9.047324  -0.000000  -0.000000
  111        8.977143      9.062642  -0.000000  -0.000000
  112        9.052303      9.108782  -0.000000  -0.000000
 
  0.2000000E+00  0.2000000E+00  0.0000000E+00  0.2666667E-01
    1       -2.347023     -2.338055   1.000000   1.000000
    2       -1.025655     -1.024877   1.000000   1.000000
    3       -1.025172     -1.007896   1.000000   1.000000
    4        0.002219     -0.006466   1.000000   1.000000
    5        0.218468      0.229259   1.000000   1.000000
    6        0.636416      0.639986   1.000000   1.000000
    7        0.637155      0.656927   1.000000   1.000000
    8        0.927248      0.935395   1.000000   1.000000
    9        0.945212      0.939651   1.000000   1.000000
   10        1.570785      1.615896   1.000000   1.000000
   11        1.728274      1.732856   1.000000   1.000000
   12        1.741265      1.777888   1.000000   1.000000
   13        1.829694      1.842202   1.000000   1.000000
   14        1.963372      1.981971   1.000000   1.000000
   15        1.967867      1.994089   1.000000   1.000000
   16        2.783635      2.812247   1.000000   1.000000
   17        2.809682      2.848009   1.000000   1.000000
   18        2.826238      2.879561   1.000000   1.000000
   19        2.882673      2.925349   1.000000   1.000000
   20        2.913900      2.960932   1.000000   1.000000
   21        3.601176      3.651406   1.000000   1.000000
   22        3.773036      3.795832   1.000000   1.000000
   23        3.777107      3.814740   1.000000   1.000000
   24        3.838543      3.899842   1.000000   1.000000
   25        4.165397      4.164890   1.000000   1.000000
   26        4.170701      4.244004   1.000000   1.000000
   27        4.171206      4.342085   1.000000   1.000000
   28        4.339876      4.386959   1.000000   1.000000
   29        4.345778      4.419425   1.000000   1.000000
   30        4.401031      4.461516   1.000000   1.000000
   31        4.552510      4.635414   1.000000   1.000000
   32        4.637649      4.760826   1.000000   1.000000
   33        4.659993      4.789509   1.000000   1.000000
   34        4.772057      4.820538   1.000000   1.000000
   35        4.816279      4.848132   1.000000   1.000000
   36        4.833838      4.866168   1.000000   1.000000
   37        4.838336      4.941183   1.000000   1.000000
   38        4.994894      5.111481   1.000000   1.000000
   39        5.088120      5.118621   1.000000   1.000000
   40        5.091853      5.189717   1.000000   1.000000
   41        5.147128      5.200554   1.000000   1.000000
   42        5.206719      5.305765   1.000000   1.000000
   43        5.258221      5.339041   1.000000   1.000000
   44        5.347933      5.444431   1.000000   1.000000
   45        5.349004      5.463322   1.000000   1.000000
   46        5.506613      5.550780   1.000000   1.000000
   47        5.518719      5.593938   1.000000   1.000000
   48        5.577407      5.632143   1.000000   1.000000
   49        5.581956      5.731187   1.000000   1.000000
   50        5.595234      5.858793   1.000000   1.000000
   51        5.597259      5.883587   1.000000   1.000000
   52        5.677964      5.926785   1.000000   1.000000
   53        5.874812      6.018150   1.000000   1.000000
   54        5.957676      6.067343   1.000000   1.000000
   55        5.973856      6.099007   1.000000   1.000000
   56        6.027388      6.161483   1.000000   1.000000
   57        6.055511      6.175279   1.000000   1.000000
   58        6.100664      6.212513   1.000000   1.000000
   59        6.185658      6.290919   1.000000   1.000000
   60        6.190592      6.343400   1.000000   1.000000
   61        6.258769      6.355236   1.000000   1.000000
   62        6.281526      6.370275   1.000000   1.000000
   63        6.333585      6.449194   1.000000   1.000000
   64        6.367837      6.455363   1.000000   1.000000
   65        6.397327      6.485360   1.000000   1.000000
   66        6.424103      6.521699   1.000000   1.000000
   67        6.434942      6.569124   1.000000   1.000000
   68        6.437439      6.573637   1.000000   1.000000
   69        6.519611      6.575627   1.000000   1.000000
   70        6.534904      6.594694   1.000000   1.000000
   71        6.537507      6.604587   1.000000   1.000000
   72        6.551050      6.606269   1.000000   1.000000
   73        6.556073      6.636676   1.000000   1.000000
   74        6.572375      6.689043   1.000000   1.000000
   75        6.603467      6.704565   1.000000   1.000000
   76        6.609961      6.831680   1.000000   1.000000
   77        6.667509      6.834736   1.000000   1.000000
   78        6.671714      6.950602   1.000000   1.000000
   79        6.744158      6.965697   1.000000   1.000001
   80        6.754592      7.012335   1.000000   1.000003
   81        6.858854      7.018587   1.000000   1.000003
   82        6.871629      7.191525   1.000000   1.000505
   83        6.941334      7.274848   1.000000   1.003156
   84        7.000952      7.355005   1.000002   1.012252
   85        7.048379      7.358757   1.000009   1.012914
   86        7.072465      7.668536   1.000019   0.733991
   87        7.085547      7.745946   1.000028   0.417884
   88        7.210971      7.842886   1.000802   0.089471
   89        7.235507      7.942812   1.001397  -0.031529
   90        7.390918      7.957040   1.019452  -0.034513
   91        7.861484      7.983508   0.050248  -0.034985
   92        7.887204      8.022673   0.009450  -0.028587
   93        7.928428      8.184715  -0.025915  -0.002817
   94        7.986041      8.216605  -0.034762  -0.001451
   95        7.988970      8.259860  -0.034469  -0.000539
   96        7.999052      8.310390  -0.033114  -0.000147
   97        8.117269      8.405324  -0.009291  -0.000009
   98        8.140570      8.415872  -0.006381  -0.000006
   99        8.252561      8.573762  -0.000641  -0.000000
  100        8.295123      8.603296  -0.000221  -0.000000
  101        8.379415      8.638387  -0.000020  -0.000000
  102        8.524958      8.645925  -0.000000  -0.000000
  103        8.535161      8.697378  -0.000000  -0.000000
  104        8.607308      8.698373  -0.000000  -0.000000
  105        8.624098      8.766769  -0.000000  -0.000000
  106        8.631337      8.783663  -0.000000  -0.000000
  107        8.673533      8.855465  -0.000000  -0.000000
  108        8.708894      8.907632  -0.000000  -0.000000
  109        8.734796      8.933906  -0.000000  -0.000000
  110        8.854701      8.991473  -0.000000  -0.000000
  111        8.890132      9.229019  -0.000000  -0.000000
  112        9.177387      9.335716  -0.000000  -0.000000
 
  0.4000000E+00  0.2000000E+00  0.0000000E+00  0.5333333E-01
    1       -2.077836     -2.068876   1.000000   1.000000
    2       -1.634397     -1.625662   1.000000   1.000000
    3       -0.770219     -0.760779   1.000000   1.000000
    4       -0.351762     -0.341906   1.000000   1.000000
    5        0.196568      0.189552   1.000000   1.000000
    6        0.512721      0.508954   1.000000   1.000000
    7        0.869389      0.881800   1.000000   1.000000
    8        1.124454      1.127433   1.000000   1.000000
    9        1.243511      1.257929   1.000000   1.000000
   10        1.428185      1.434710   1.000000   1.000000
   11        1.643489      1.659587   1.000000   1.000000
   12        1.849484      1.894555   1.000000   1.000000
   13        2.143970      2.168366   1.000000   1.000000
   14        2.301406      2.344836   1.000000   1.000000
   15        2.362145      2.400620   1.000000   1.000000
   16        2.430333      2.458606   1.000000   1.000000
   17        2.580333      2.611659   1.000000   1.000000
   18        2.730691      2.748939   1.000000   1.000000
   19        3.125462      3.168696   1.000000   1.000000
   20        3.147009      3.225291   1.000000   1.000000
   21        3.180261      3.228867   1.000000   1.000000
   22        3.465977      3.519888   1.000000   1.000000
   23        3.593196      3.635678   1.000000   1.000000
   24        3.903494      3.954422   1.000000   1.000000
   25        3.915890      3.963149   1.000000   1.000000
   26        4.088425      4.140455   1.000000   1.000000
   27        4.259581      4.317920   1.000000   1.000000
   28        4.289759      4.433859   1.000000   1.000000
   29        4.392715      4.496273   1.000000   1.000000
   30        4.459152      4.514955   1.000000   1.000000
   31        4.509378      4.525392   1.000000   1.000000
   32        4.556470      4.616063   1.000000   1.000000
   33        4.633997      4.747129   1.000000   1.000000
   34        4.739714      4.797309   1.000000   1.000000
   35        4.800588      4.835736   1.000000   1.000000
   36        4.819932      4.913327   1.000000   1.000000
   37        4.933324      5.017515   1.000000   1.000000
   38        4.973942      5.038529   1.000000   1.000000
   39        5.099757      5.136256   1.000000   1.000000
   40        5.160418      5.237601   1.000000   1.000000
   41        5.212917      5.253643   1.000000   1.000000
   42        5.242055      5.309962   1.000000   1.000000
   43        5.281389      5.437886   1.000000   1.000000
   44        5.375904      5.481882   1.000000   1.000000
   45        5.462116      5.539492   1.000000   1.000000
   46        5.470091      5.575169   1.000000   1.000000
   47        5.524045      5.586853   1.000000   1.000000
   48        5.535290      5.659072   1.000000   1.000000
   49        5.580644      5.673347   1.000000   1.000000
   50        5.619560      5.790459   1.000000   1.000000
   51        5.645480      5.858802   1.000000   1.000000
   52        5.737832      5.917445   1.000000   1.000000
   53        5.819184      5.957892   1.000000   1.000000
   54        5.856963      6.036961   1.000000   1.000000
   55        5.896401      6.050074   1.000000   1.000000
   56        5.923596      6.083163   1.000000   1.000000
   57        6.039203      6.205448   1.000000   1.000000
   58        6.125019      6.213448   1.000000   1.000000
   59        6.157645      6.218522   1.000000   1.000000
   60        6.174078      6.325965   1.000000   1.000000