       N       E                     dE             d eps       ncg     rms          ort
DAV:   1     0.135153181560E+04    0.13515E+04   -0.59038E+04  2688   0.143E+03
DAV:   2    -0.601838112298E+02   -0.14117E+04   -0.13788E+04  2688   0.437E+02
DAV:   3    -0.237992656060E+03   -0.17781E+03   -0.15965E+03  2688   0.168E+02
DAV:   4    -0.266716170434E+03   -0.28724E+02   -0.25768E+02  2688   0.735E+01
DAV:   5    -0.269659382254E+03   -0.29432E+01   -0.28236E+01  2688   0.215E+01
DAV:   6    -0.269900041956E+03   -0.24066E+00   -0.23580E+00  2688   0.579E+00
DAV:   7    -0.269925992382E+03   -0.25950E-01   -0.25713E-01  2688   0.165E+00
DAV:   8    -0.269927990099E+03   -0.19977E-02   -0.19861E-02  2688   0.421E-01
SDA:   9    -0.700061879442E+02    0.19992E+03   -0.19861E-02  2688   0.222E+04 0.000E+00
CGA:  10    -0.213036165808E+03   -0.14303E+03   -0.14481E+03  2688   0.887E+02 0.300E+03
CGA:  11    -0.221602837056E+03   -0.85667E+01   -0.88034E+01  2688   0.633E+02-0.159E+01
CGA:  12    -0.230742186461E+03   -0.91393E+01   -0.89853E+01  2688   0.822E+02-0.925E+00
CGA:  13    -0.235346550882E+03   -0.46044E+01   -0.46482E+01  2688   0.879E+01 0.105E+01
CGA:  14    -0.236069522423E+03   -0.72297E+00   -0.72877E+00  2688   0.536E+01-0.339E-01
CGA:  15    -0.236931238243E+03   -0.86172E+00   -0.86204E+00  2688   0.419E+01 0.141E-01
CGA:  16    -0.237293719450E+03   -0.36248E+00   -0.36017E+00  2688   0.170E+01 0.185E-01
CGA:  17    -0.237410894873E+03   -0.11718E+00   -0.11557E+00  2688   0.114E+01 0.159E-01
CGA:  18    -0.237623893758E+03   -0.21300E+00   -0.21296E+00  2688   0.663E+00 0.784E-03
CGA:  19    -0.237686789363E+03   -0.62896E-01   -0.63042E-01  2688   0.280E+00-0.881E-03
CGA:  20    -0.237737984271E+03   -0.51195E-01   -0.51184E-01  2688   0.367E+00 0.293E-03
CGA:  21    -0.237786773144E+03   -0.48789E-01   -0.48773E-01  2688   0.232E+00-0.347E-03
CGA:  22    -0.237799116832E+03   -0.12344E-01   -0.12317E-01  2688   0.711E-01 0.139E-03
CGA:  23    -0.237813440974E+03   -0.14324E-01   -0.14340E-01  2688   0.987E-01-0.329E-03
CGA:  24    -0.237827588770E+03   -0.14148E-01   -0.14147E-01  2688   0.629E-01-0.238E-03
CGA:  25    -0.237835751108E+03   -0.81623E-02   -0.81587E-02  2688   0.391E-01-0.203E-03
CGA:  26    -0.237844993951E+03   -0.92428E-02   -0.92726E-02  2688   0.229E-01-0.306E-03
CGA:  27    -0.237847652657E+03   -0.26587E-02   -0.26578E-02  2688   0.185E-01-0.129E-04
CGA:  28    -0.237849483789E+03   -0.18311E-02   -0.18282E-02  2688   0.194E-01 0.145E-05
CGA:  29    -0.237851929329E+03   -0.24455E-02   -0.24449E-02  2688   0.124E-01-0.281E-05
CGA:  30    -0.237853765495E+03   -0.18362E-02   -0.18360E-02  2688   0.758E-02-0.217E-04
CGA:  31    -0.237855494439E+03   -0.17289E-02   -0.17302E-02  2688   0.529E-02 0.425E-05
CGA:  32    -0.237856089201E+03   -0.59476E-03   -0.59571E-03  2688   0.446E-02 0.416E-04
CGA:  33    -0.237856524420E+03   -0.43522E-03   -0.43749E-03  2688   0.371E-02 0.379E-04
CGA:  34    -0.237856963289E+03   -0.43887E-03   -0.43971E-03  2688   0.289E-02 0.350E-04
CGA:  35    -0.237857415118E+03   -0.45183E-03   -0.45167E-03  2688   0.180E-02 0.309E-04
CGA:  36    -0.237857816957E+03   -0.40184E-03   -0.39993E-03  2688   0.112E-02 0.294E-04
CGA:  37    -0.237857935141E+03   -0.11818E-03   -0.11877E-03  2688   0.106E-02 0.102E-04
CGA:  38    -0.237858039100E+03   -0.10396E-03   -0.10416E-03  2688   0.877E-03 0.607E-05
CGA:  39    -0.237858187605E+03   -0.14850E-03   -0.14850E-03  2688   0.701E-03-0.694E-06
SDA:  40    -0.237858294831E+03   -0.10723E-03   -0.10726E-03  2688   0.399E-03-0.120E-04
CGA:  41    -0.237858359707E+03   -0.64876E-04   -0.64860E-04  2688   0.502E-03 0.122E-05
CGA:  42    -0.237858399761E+03   -0.40054E-04   -0.39974E-04  2688   0.253E-03-0.104E-05
CGA:  43    -0.237858424315E+03   -0.24555E-04   -0.24469E-04  2688   0.187E-03-0.174E-05
CGA:  44    -0.237858467965E+03   -0.43650E-04   -0.44169E-04  2688   0.146E-03-0.561E-05
CGA:  45    -0.237858511924E+03   -0.43959E-04   -0.43786E-04  2688   0.151E-03 0.101E-05
CGA:  46    -0.237858534637E+03   -0.22713E-04   -0.22710E-04  2688   0.157E-03-0.483E-06
CGA:  47    -0.237858557674E+03   -0.23037E-04   -0.23029E-04  2688   0.953E-04-0.987E-06
CGA:  48    -0.237858565636E+03   -0.79616E-05   -0.79556E-05  2688   0.106E-03 0.301E-08
CGA:  49    -0.237858589671E+03   -0.24035E-04   -0.23805E-04  2688   0.962E-04 0.336E-05
CGA:  50    -0.237858601778E+03   -0.12107E-04   -0.12167E-04  2688   0.595E-04 0.184E-05
CGA:  51    -0.237858618829E+03   -0.17051E-04   -0.16842E-04  2688   0.237E-04 0.187E-05
CGA:  52    -0.237858625309E+03   -0.64792E-05   -0.64505E-05  2688   0.890E-04 0.268E-06
CGA:  53    -0.237858632953E+03   -0.76444E-05   -0.76234E-05  2688   0.322E-04 0.208E-06
CGA:  54    -0.237858637634E+03   -0.46810E-05   -0.47011E-05  2688   0.327E-04 0.131E-05
CGA:  55    -0.237858643797E+03   -0.61627E-05   -0.61294E-05  2688   0.262E-04 0.168E-05
CGA:  56    -0.237858647922E+03   -0.41257E-05   -0.41234E-05  2688   0.345E-04-0.120E-06
CGA:  57    -0.237858650211E+03   -0.22888E-05   -0.22927E-05  2688   0.132E-04-0.225E-07
CGA:  58    -0.237858652696E+03   -0.24850E-05   -0.24706E-05  2688   0.231E-04 0.439E-06
CGA:  59    -0.237858656860E+03   -0.41636E-05   -0.41460E-05  2688   0.141E-04 0.124E-05
CGA:  60    -0.237858657749E+03   -0.88915E-06   -0.91864E-06  2688   0.932E-05 0.285E-06
CGA:  61    -0.237858660180E+03   -0.24310E-05   -0.24383E-05  2688   0.948E-05-0.825E-07
CGA:  62    -0.237858660989E+03   -0.80898E-06   -0.81007E-06  2688   0.292E-05 0.410E-07
CGA:  63    -0.237858661684E+03   -0.69482E-06   -0.68460E-06  2688   0.894E-05 0.143E-06
CGA:  64    -0.237858662399E+03   -0.71512E-06   -0.70827E-06  2688   0.202E-05-0.318E-07
CGA:  65    -0.237858662993E+03   -0.59456E-06   -0.65591E-06  2688   0.437E-05-0.359E-06
CGA:  66    -0.237858663249E+03   -0.25569E-06   -0.24859E-06  2688   0.210E-05-0.744E-07
CGA:  67    -0.237858663452E+03   -0.20254E-06   -0.21611E-06  2688   0.145E-05 0.238E-06
CGA:  68    -0.237858663612E+03   -0.16005E-06   -0.17241E-06  2688   0.846E-06 0.255E-06
CGA:  69    -0.237858663739E+03   -0.12747E-06   -0.12932E-06  2688   0.146E-05 0.833E-07
CGA:  70    -0.237858663862E+03   -0.12300E-06   -0.13275E-06  2688   0.478E-06 0.143E-06
SDA:  71    -0.237858663903E+03   -0.41333E-07   -0.50922E-07  2688   0.419E-06 0.178E-06
   1 F= -.23785866E+03 E0= -.23786663E+03  d E =0.239078E-01  mag=     4.2131
