 vasp.5.4.4.18Apr17-6-g9f103f2a35 (build Dec 20 2018 12:05:58) complex          
  
 executed on             LinuxIFC date 2019.06.20  15:12:08
 running on   32 total cores
 distrk:  each k-point on    8 cores,    4 groups
 distr:  one band on NCORES_PER_BAND=   4 cores,    2 groups


--------------------------------------------------------------------------------------------------------


 INCAR:
 POTCAR:    PAW_PBE Al 04Jan2001                  
 POTCAR:    PAW_PBE Mn 06Sep2000                  

 ----------------------------------------------------------------------------- 
|                                                                             |
|           W    W    AA    RRRRR   N    N  II  N    N   GGGG   !!!           |
|           W    W   A  A   R    R  NN   N  II  NN   N  G    G  !!!           |
|           W    W  A    A  R    R  N N  N  II  N N  N  G       !!!           |
|           W WW W  AAAAAA  RRRRR   N  N N  II  N  N N  G  GGG   !            |
|           WW  WW  A    A  R   R   N   NN  II  N   NN  G    G                |
|           W    W  A    A  R    R  N    N  II  N    N   GGGG   !!!           |
|                                                                             |
|      You have enabled k-point parallelism (KPAR>1).                         |
|      This developmental code was originally  written by Paul Kent at ORNL,  |
|      and carefully double checked in Vienna.                                |
|      GW as well as linear response parallelism added by Martijn Marsman     |
|      and Georg Kresse.                                                      |
|      Carefully verify results versus KPAR=1.                                |
|      Report problems to Paul Kent and Vienna.                               |
|                                                                             |
 ----------------------------------------------------------------------------- 

 POTCAR:    PAW_PBE Al 04Jan2001                  
   VRHFIN =Al: s2p1                                                             
   LEXCH  = PE                                                                  
   EATOM  =    53.5387 eV,    3.9350 Ry                                         
                                                                                
   TITEL  = PAW_PBE Al 04Jan2001                                                
   LULTRA =        F    use ultrasoft PP ?                                      
   IUNSCR =        1    unscreen: 0-lin 1-nonlin 2-no                           
   RPACOR =    1.500    partial core radius                                     
   POMASS =   26.981; ZVAL   =    3.000    mass and valenz                      
   RCORE  =    1.900    outmost cutoff radius                                   
   RWIGS  =    2.650; RWIGS  =    1.402    wigner-seitz radius (au A)           
   ENMAX  =  240.300; ENMIN  =  180.225 eV                                      
   ICORE  =        2    local potential                                         
   LCOR   =        T    correct aug charges                                     
   LPAW   =        T    paw PP                                                  
   EAUG   =  291.052                                                            
   DEXC   =    0.000                                                            
   RMAX   =    1.939    core radius for proj-oper                               
   RAUG   =    1.300    factor for augmentation sphere                          
   RDEP   =    1.966    radius for radial grids                                 
   RDEPT  =    1.856    core radius for aug-charge                              
                                                                                
   Atomic configuration                                                         
    6 entries                                                                   
     n  l   j            E        occ.                                          
     1  0  0.50     -1511.1048   2.0000                                         
     2  0  0.50      -108.1629   2.0000                                         
     2  1  1.50       -69.6402   6.0000                                         
     3  0  0.50        -7.7528   2.0000                                         
     3  1  1.50        -2.7121   1.0000                                         
     3  2  2.50        -2.7212   0.0000                                         
   Description                                                                  
     l       E           TYP  RCUT    TYP  RCUT                                 
     0     -7.7528455     23  1.900                                             
     0     -3.3096929     23  1.900                                             
     1     -2.7120682     23  1.900                                             
     1     13.6058260     23  1.900                                             
     2     -2.7211652      7  1.900                                             
  local pseudopotential read in
  partial core-charges read in
  partial kinetic energy density read in
  atomic valenz-charges read in
  non local Contribution for L=           0  read in
    real space projection operators read in
  non local Contribution for L=           0  read in
    real space projection operators read in
  non local Contribution for L=           1  read in
    real space projection operators read in
  non local Contribution for L=           1  read in
    real space projection operators read in
    PAW grid and wavefunctions read in
 
   number of l-projection  operators is LMAX  =           4
   number of lm-projection operators is LMMAX =           8
 
 POTCAR:    PAW_PBE Mn 06Sep2000                  
   VRHFIN =Mn: d6 s1                                                            
   LEXCH  = PE                                                                  
   EATOM  =   416.7541 eV,   30.6306 Ry                                         
                                                                                
   TITEL  = PAW_PBE Mn 06Sep2000                                                
   LULTRA =        F    use ultrasoft PP ?                                      
   IUNSCR =        1    unscreen: 0-lin 1-nonlin 2-no                           
   RPACOR =    2.000    partial core radius                                     
   POMASS =   54.938; ZVAL   =    7.000    mass and valenz                      
   RCORE  =    2.300    outmost cutoff radius                                   
   RWIGS  =    2.500; RWIGS  =    1.323    wigner-seitz radius (au A)           
   ENMAX  =  269.864; ENMIN  =  202.398 eV                                      
   RCLOC  =    1.725    cutoff for local pot                                    
   LCOR   =        T    correct aug charges                                     
   LPAW   =        T    paw PP                                                  
   EAUG   =  500.711                                                            
   DEXC   =    0.000                                                            
   RMAX   =    2.343    core radius for proj-oper                               
   RAUG   =    1.300    factor for augmentation sphere                          
   RDEP   =    2.338    radius for radial grids                                 
   RDEPT  =    1.911    core radius for aug-charge                              
                                                                                
   Atomic configuration                                                         
    9 entries                                                                   
     n  l   j            E        occ.                                          
     1  0  0.50     -6424.8288   2.0000                                         
     2  0  0.50      -739.1154   2.0000                                         
     2  1  1.50      -625.3949   6.0000                                         
     3  0  0.50       -81.6100   2.0000                                         
     3  1  1.50       -50.4667   6.0000                                         
     3  2  2.50        -3.3745   6.0000                                         
     4  0  0.50        -4.1331   1.0000                                         
     4  1  0.50        -4.0817   0.0000                                         
     4  3  2.50        -1.3606   0.0000                                         
   Description                                                                  
     l       E           TYP  RCUT    TYP  RCUT                                 
     2     -3.3744664     23  2.300                                             
     2     -4.7350490     23  2.300                                             
     0     -4.1331408     23  2.300                                             
     0      7.6656614     23  2.300                                             
     1     -2.7211652     23  2.300                                             
     1     20.4087390     23  2.300                                             
  local pseudopotential read in
  partial core-charges read in
  partial kinetic energy density read in
  atomic valenz-charges read in
  non local Contribution for L=           2  read in
    real space projection operators read in
  non local Contribution for L=           2  read in
    real space projection operators read in
  non local Contribution for L=           0  read in
    real space projection operators read in
  non local Contribution for L=           0  read in
    real space projection operators read in
  non local Contribution for L=           1  read in
    real space projection operators read in
  non local Contribution for L=           1  read in
    real space projection operators read in
    PAW grid and wavefunctions read in
 
   number of l-projection  operators is LMAX  =           6
   number of lm-projection operators is LMMAX =          18
 

 ----------------------------------------------------------------------------- 
|                                                                             |
|  ADVICE TO THIS USER RUNNING 'VASP/VAMP'   (HEAR YOUR MASTER'S VOICE ...):  |
|                                                                             |
|      You have a (more or less) 'large supercell' and for larger cells       |
|      it might be more efficient to use real space projection opertators     |
|      So try LREAL= Auto  in the INCAR   file.                               |
|      Mind:          For very  accurate calculation you might also keep the  |
|      reciprocal projection scheme          (i.e. LREAL=.FALSE.)             |
|                                                                             |
 ----------------------------------------------------------------------------- 

  PAW_PBE Al 04Jan2001                  :
 energy of atom  1       EATOM=  -53.5387
 kinetic energy error for atom=    0.0005 (will be added to EATOM!!)
  PAW_PBE Mn 06Sep2000                  :
 energy of atom  2       EATOM= -416.7541
 kinetic energy error for atom=    0.0080 (will be added to EATOM!!)
 
 
 POSCAR: NewRef: 18, @ ['Mn', array([1.37502469, 
  positions in cartesian coordinates
  velocities in cartesian coordinates
  No initial velocities read in
 exchange correlation table for  LEXCH =        8
   RHO(1)=    0.500       N(1)  =     2000
   RHO(2)=  100.500       N(2)  =     4000
 


--------------------------------------------------------------------------------------------------------


 ion  position               nearest neighbor table
   1  0.000  0.000  0.000-  20 2.61  24 2.61  32 2.61  36 2.61  31 2.61  23 2.61  35 2.61  19 2.61
                             3 2.75   7 2.75   5 2.75  13 2.75
   2  0.000  0.000  0.500-  19 2.61  23 2.61  31 2.61  35 2.61  20 2.61  32 2.61  24 2.61  36 2.61
                             4 2.75   8 2.75   6 2.75  14 2.75
   3  0.000  0.333  0.000-  20 2.61  32 2.61  22 2.61  34 2.61  19 2.61  31 2.61  33 2.61  21 2.61
                             9 2.75   1 2.75   5 2.75  15 2.75
   4  0.000  0.333  0.500-  19 2.61  31 2.61  21 2.61  33 2.61  32 2.61  20 2.61  22 2.61  34 2.61
                            10 2.75   2 2.75   6 2.75  16 2.75
   5  0.000  0.667  0.000-  22 2.61  34 2.61  24 2.61  36 2.61  21 2.61  33 2.61  35 2.61  23 2.61
                             3 2.75  11 2.75   1 2.75  17 2.75
   6  0.000  0.667  0.500-  21 2.61  33 2.61  23 2.61  35 2.61  34 2.61  22 2.61  24 2.61  36 2.61
                             4 2.75  12 2.75   2 2.75  18 2.75
   7  0.333  0.000  0.000-  20 2.61  24 2.61  26 2.61  30 2.61  23 2.61  19 2.61  29 2.61  25 2.61
                            13 2.75   1 2.75   9 2.75  11 2.75
   8  0.333  0.000  0.500-  19 2.61  23 2.61  25 2.61  29 2.61  20 2.61  24 2.61  26 2.61  30 2.61
                            14 2.75   2 2.75  10 2.75  12 2.75
   9  0.333  0.333  0.000-  20 2.61  22 2.61  26 2.61  19 2.61  28 2.61  21 2.61  25 2.61  27 2.61
                             3 2.75   7 2.75  11 2.75  15 2.75
  10  0.333  0.333  0.500-  19 2.61  21 2.61  25 2.61  20 2.61  27 2.61  26 2.61  22 2.61  28 2.61
                             4 2.75   8 2.75  12 2.75  16 2.75
  11  0.333  0.667  0.000-  22 2.61  24 2.61  28 2.61  21 2.61  30 2.61  23 2.61  27 2.61  29 2.61
                            17 2.75   5 2.75   9 2.75   7 2.75
  12  0.333  0.667  0.500-  21 2.61  23 2.61  27 2.61  22 2.61  29 2.61  28 2.61  24 2.61  30 2.61
                            18 2.75   6 2.75  10 2.75   8 2.75
  13  0.667  0.000  0.000-  26 2.61  30 2.61  32 2.61  36 2.61  29 2.61  25 2.61  35 2.61  31 2.61
                             7 2.75  15 2.75   1 2.75  17 2.75
  14  0.667  0.000  0.500-  25 2.61  29 2.61  31 2.61  35 2.61  26 2.61  30 2.61  32 2.61  36 2.61
                             8 2.75  16 2.75   2 2.75  18 2.75
  15  0.667  0.333  0.000-  26 2.61  28 2.61  32 2.61  25 2.61  34 2.61  27 2.61  31 2.61  33 2.61
                            17 2.75   9 2.75  13 2.75   3 2.75
  16  0.667  0.333  0.500-  25 2.61  27 2.61  31 2.61  26 2.61  33 2.61  32 2.61  28 2.61  34 2.61
                            18 2.75  10 2.75  14 2.75   4 2.75
  17  0.667  0.667  0.000-  28 2.61  30 2.61  34 2.61  27 2.61  36 2.61  29 2.61  33 2.61  35 2.61
                            11 2.75  15 2.75  13 2.75   5 2.75
  18  0.667  0.667  0.500-  27 2.61  29 2.61  33 2.61  28 2.61  35 2.61  34 2.61  30 2.61  36 2.61
                            12 2.75  16 2.75  14 2.75   6 2.75
  19  0.167  0.167  0.250-  10 2.61   8 2.61   4 2.61   9 2.61   2 2.61   7 2.61   3 2.61   1 2.61
                            21 2.75  25 2.75  23 2.75  31 2.75
  20  0.167  0.167  0.750-   9 2.61   7 2.61   3 2.61  10 2.61   1 2.61   4 2.61   8 2.61   2 2.61
                            22 2.75  26 2.75  24 2.75  32 2.75
  21  0.167  0.500  0.250-  12 2.61  10 2.61   6 2.61  11 2.61   4 2.61   9 2.61   5 2.61   3 2.61
                            19 2.75  23 2.75  27 2.75  33 2.75
  22  0.167  0.500  0.750-  11 2.61   9 2.61   5 2.61  12 2.61   3 2.61   6 2.61  10 2.61   4 2.61
                            20 2.75  24 2.75  28 2.75  34 2.75
  23  0.167  0.833  0.250-   8 2.61  12 2.61   2 2.61   6 2.61  11 2.61   7 2.61   5 2.61   1 2.61
                            21 2.75  29 2.75  19 2.75  35 2.75
  24  0.167  0.833  0.750-   7 2.61  11 2.61   1 2.61   5 2.61   8 2.61  12 2.61   2 2.61   6 2.61
                            22 2.75  30 2.75  20 2.75  36 2.75
  25  0.500  0.167  0.250-  16 2.61  14 2.61  10 2.61  15 2.61   8 2.61  13 2.61   9 2.61   7 2.61
                            19 2.75  27 2.75  31 2.75  29 2.75
  26  0.500  0.167  0.750-  15 2.61  13 2.61   9 2.61  16 2.61   7 2.61  10 2.61  14 2.61   8 2.61
                            20 2.75  28 2.75  32 2.75  30 2.75
  27  0.500  0.500  0.250-  18 2.61  16 2.61  12 2.61  17 2.61  10 2.61  15 2.61  11 2.61   9 2.61
                            21 2.75  25 2.75  29 2.75  33 2.75
  28  0.500  0.500  0.750-  17 2.61  15 2.61  11 2.61  18 2.61   9 2.61  12 2.61  16 2.61  10 2.61
                            22 2.75  26 2.75  30 2.75  34 2.75
  29  0.500  0.833  0.250-  14 2.61  18 2.61   8 2.61  12 2.61  17 2.61  13 2.61  11 2.61   7 2.61
                            23 2.75  27 2.75  35 2.75  25 2.75
  30  0.500  0.833  0.750-  13 2.61  17 2.61   7 2.61  11 2.61  14 2.61  18 2.61   8 2.61  12 2.61
                            24 2.75  28 2.75  36 2.75  26 2.75
  31  0.833  0.167  0.250-   4 2.61  16 2.61  14 2.61   2 2.61  15 2.61   3 2.61  13 2.61   1 2.61
                            25 2.75  33 2.75  19 2.75  35 2.75
  32  0.833  0.167  0.750-   3 2.61  15 2.61  13 2.61   1 2.61   4 2.61  16 2.61   2 2.61  14 2.61
                            26 2.75  34 2.75  20 2.75  36 2.75
  33  0.833  0.500  0.250-   6 2.61  18 2.61  16 2.61   4 2.61  17 2.61   5 2.61  15 2.61   3 2.61
                            27 2.75  31 2.75  35 2.75  21 2.75
  34  0.833  0.500  0.750-   5 2.61  17 2.61  15 2.61   3 2.61   6 2.61  18 2.61   4 2.61  16 2.61
                            28 2.75  32 2.75  36 2.75  22 2.75
  35  0.833  0.833  0.250-   2 2.61   6 2.61  14 2.61  18 2.61  13 2.61   5 2.61  17 2.61   1 2.61
                            29 2.75  33 2.75  31 2.75  23 2.75
  36  0.833  0.833  0.750-   1 2.61   5 2.61  13 2.61  17 2.61   2 2.61  14 2.61   6 2.61  18 2.61
                            30 2.75  34 2.75  32 2.75  24 2.75
 
  LATTYP: Found a simple tetragonal cell.
 ALAT       =     8.2501481662
 C/A-ratio  =     0.8428059861
  
  Lattice vectors:
  
 A1 = (   8.2501481662,   0.0000000000,   0.0000000000)
 A2 = (   0.0000000000,   8.2501481662,   0.0000000000)
 A3 = (   0.0000000000,   0.0000000000,   6.9532742610)


Analysis of symmetry for initial positions (statically):
=====================================================================
 Subroutine PRICEL returns following result:
 
  LATTYP: Found a simple tetragonal cell.
 ALAT       =     2.7500493888
 C/A-ratio  =     1.2642089792
  
  Lattice vectors:
  
 A1 = (   2.7500493888,   0.0000000000,   0.0000000000)
 A2 = (   0.0000000000,   2.7500493888,   0.0000000000)
 A3 = (   0.0000000000,   0.0000000000,   3.4766371305)
 
  18 primitive cells build up your supercell.
 

 Routine SETGRP: Setting up the symmetry group for a 
 simple tetragonal supercell.


 Subroutine GETGRP returns: Found 16 space group operations
 (whereof 16 operations were pure point group operations)
 out of a pool of 16 trial point group operations.


The static configuration has the point symmetry D_4h.


Analysis of symmetry for dynamics (positions and initial velocities):
=====================================================================
 Subroutine PRICEL returns following result:
 
  LATTYP: Found a simple tetragonal cell.
 ALAT       =     2.7500493888
 C/A-ratio  =     1.2642089792
  
  Lattice vectors:
  
 A1 = (   2.7500493888,   0.0000000000,   0.0000000000)
 A2 = (   0.0000000000,   2.7500493888,   0.0000000000)
 A3 = (   0.0000000000,   0.0000000000,   3.4766371305)
 
  18 primitive cells build up your supercell.
 

 Routine SETGRP: Setting up the symmetry group for a 
 simple tetragonal supercell.


 Subroutine GETGRP returns: Found 16 space group operations
 (whereof 16 operations were pure point group operations)
 out of a pool of 16 trial point group operations.


The dynamic configuration has the point symmetry D_4h.


Analysis of structural, dynamic, and magnetic symmetry:
=====================================================================
 Subroutine PRICEL returns:
 Original cell was already a primitive cell.
 

 Routine SETGRP: Setting up the symmetry group for a 
 simple tetragonal supercell.


 Subroutine GETGRP returns: Found 16 space group operations
 (whereof  2 operations were pure point group operations)
 out of a pool of 16 trial point group operations.


The magnetic configuration has the point symmetry C_1h.
 The point group associated with its full space group is D_4h.


 Subroutine INISYM returns: Found 16 space group operations
 (whereof  2 operations are pure point group operations),
 and found     1 'primitive' translations

 
 
 KPOINTS: automatic KPOINTS                       

Automatic generation of k-mesh.
 generate k-points for:    5    5    6
Space group operators:
 irot       det(A)        alpha          n_x          n_y          n_z        tau_x        tau_y        tau_z
    1     1.000000     0.000001     1.000000     0.000000     0.000000     0.000000     0.000000     0.000000
    2    -1.000000   180.000000     0.707107    -0.707107     0.000000     0.000000     0.000000     0.000000
    3    -1.000000     0.000001     1.000000     0.000000     0.000000     0.333333     0.333333     0.500000
    4     1.000000    90.000000     0.000000     0.000000    -1.000000     0.333333     0.000000     0.000000
    5    -1.000000    90.000000     0.000000     0.000000    -1.000000     0.000000     0.333333     0.500000
    6     1.000000   179.999999     0.000000     0.000000     1.000000     0.333333     0.333333     0.000000
    7    -1.000000   179.999999     0.000000     0.000000     1.000000     0.000000     0.000000     0.500000
    8     1.000000    90.000000     0.000000     0.000000     1.000000     0.000000     0.333333     0.000000
    9    -1.000000    90.000000     0.000000     0.000000     1.000000     0.333333     0.000000     0.500000
   10     1.000000   180.000000     0.000000     1.000000     0.000000     0.333333     0.000000     0.500000
   11    -1.000000   180.000000     0.000000     1.000000     0.000000     0.000000     0.333333     0.000000
   12     1.000000   180.000000     0.707107     0.707107     0.000000     0.000000     0.000000     0.500000
   13    -1.000000   180.000000     0.707107     0.707107     0.000000     0.333333     0.333333     0.000000
   14     1.000000   180.000000     1.000000     0.000000     0.000000     0.000000     0.333333     0.500000
   15    -1.000000   180.000000     1.000000     0.000000     0.000000     0.333333     0.000000     0.000000
   16     1.000000   180.000000     0.707107    -0.707107     0.000000     0.333333     0.333333     0.500000
 
 Subroutine IBZKPT returns following result:
 ===========================================
 
 Found     24 irreducible k-points:
 
 Following reciprocal coordinates:
            Coordinates               Weight
  0.000000  0.000000  0.000000      1.000000
  0.200000  0.000000  0.000000      4.000000
  0.400000  0.000000  0.000000      4.000000
  0.200000  0.200000  0.000000      4.000000
  0.400000  0.200000  0.000000      8.000000
  0.400000  0.400000  0.000000      4.000000
  0.000000  0.000000  0.166667      2.000000
  0.200000  0.000000  0.166667      8.000000
  0.400000  0.000000  0.166667      8.000000
  0.200000  0.200000  0.166667      8.000000
  0.400000  0.200000  0.166667     16.000000
  0.400000  0.400000  0.166667      8.000000
  0.000000  0.000000  0.333333      2.000000
  0.200000  0.000000  0.333333      8.000000
  0.400000  0.000000  0.333333      8.000000
  0.200000  0.200000  0.333333      8.000000
  0.400000  0.200000  0.333333     16.000000
  0.400000  0.400000  0.333333      8.000000
  0.000000  0.000000  0.500000      1.000000
  0.200000  0.000000  0.500000      4.000000
  0.400000  0.000000  0.500000      4.000000
  0.200000  0.200000  0.500000      4.000000
  0.400000  0.200000  0.500000      8.000000
  0.400000  0.400000  0.500000      4.000000
 
 Following cartesian coordinates:
            Coordinates               Weight
  0.000000  0.000000  0.000000      1.000000
  0.024242  0.000000  0.000000      4.000000
  0.048484  0.000000  0.000000      4.000000
  0.024242  0.024242  0.000000      4.000000
  0.048484  0.024242  0.000000      8.000000
  0.048484  0.048484  0.000000      4.000000
  0.000000  0.000000  0.023970      2.000000
  0.024242  0.000000  0.023970      8.000000
  0.048484  0.000000  0.023970      8.000000
  0.024242  0.024242  0.023970      8.000000
  0.048484  0.024242  0.023970     16.000000
  0.048484  0.048484  0.023970      8.000000
  0.000000  0.000000  0.047939      2.000000
  0.024242  0.000000  0.047939      8.000000
  0.048484  0.000000  0.047939      8.000000
  0.024242  0.024242  0.047939      8.000000
  0.048484  0.024242  0.047939     16.000000
  0.048484  0.048484  0.047939      8.000000
  0.000000  0.000000  0.071909      1.000000
  0.024242  0.000000  0.071909      4.000000
  0.048484  0.000000  0.071909      4.000000
  0.024242  0.024242  0.071909      4.000000
  0.048484  0.024242  0.071909      8.000000
  0.048484  0.048484  0.071909      4.000000
 


--------------------------------------------------------------------------------------------------------




 Dimension of arrays:
   k-points           NKPTS =     24   k-points in BZ     NKDIM =     24   number of bands    NBANDS=    112
   number of dos      NEDOS =    301   number of ions     NIONS =     36
   non local maximal  LDIM  =      6   non local SUM 2l+1 LMDIM =     18
   total plane-waves  NPLWV = 139968
   max r-space proj   IRMAX =      1   max aug-charges    IRDMAX=  92271
   dimension x,y,z NGX =    54 NGY =   54 NGZ =   48
   dimension x,y,z NGXF=   108 NGYF=  108 NGZF=   96
   support grid    NGXF=   216 NGYF=  216 NGZF=  192
   ions per type =              18  18
   NGX,Y,Z   is equivalent  to a cutoff of  10.88, 10.88, 11.48 a.u.
   NGXF,Y,Z  is equivalent  to a cutoff of  21.76, 21.76, 22.95 a.u.

 SYSTEM =  AlMn_pv                                 
 POSCAR =  NewRef: 18, @ ['Mn', array([1.37502469, 

 Startparameter for this run:
   NWRITE =      2    write-flag & timer
   PREC   = accura    normal or accurate (medium, high low for compatibility)
   ISTART =      0    job   : 0-new  1-cont  2-samecut
   ICHARG =      2    charge: 1-file 2-atom 10-const
   ISPIN  =      2    spin polarized calculation?
   LNONCOLLINEAR =      F non collinear calculations
   LSORBIT =      F    spin-orbit coupling
   INIWAV =      1    electr: 0-lowe 1-rand  2-diag
   LASPH  =      F    aspherical Exc in radial PAW
   METAGGA=      F    non-selfconsistent MetaGGA calc.

 Electronic Relaxation 1
   ENCUT  =  404.8 eV  29.75 Ry    5.45 a.u.  13.53 13.53 11.41*2*pi/ulx,y,z
   ENINI  =  404.8     initial cutoff
   ENAUG  =  500.7 eV  augmentation charge cutoff
   NELM   =    100;   NELMIN=  4; NELMDL= -8     # of ELM steps 
   EDIFF  = 0.1E-06   stopping-criterion for ELM
   LREAL  =      F    real-space projection
   NLSPLINE    = F    spline interpolate recip. space projectors
   LCOMPAT=      F    compatible to vasp.4.4
   GGA_COMPAT  = T    GGA compatible to vasp.4.4-vasp.4.6
   LMAXPAW     = -100 max onsite density
   LMAXMIX     =    2 max onsite mixed and CHGCAR
   VOSKOWN=      0    Vosko Wilk Nusair interpolation
   ROPT   =    0.00000   0.00000
 Ionic relaxation
   EDIFFG = 0.1E-05   stopping-criterion for IOM
   NSW    =      0    number of steps for IOM
   NBLOCK =      1;   KBLOCK =      1    inner block; outer block 
   IBRION =     -1    ionic relax: 0-MD 1-quasi-New 2-CG
   NFREE  =      0    steps in history (QN), initial steepest desc. (CG)
   ISIF   =      2    stress and relaxation
   IWAVPR =     10    prediction:  0-non 1-charg 2-wave 3-comb
   ISYM   =      2    0-nonsym 1-usesym 2-fastsym
   LCORR  =      T    Harris-Foulkes like correction to forces

   POTIM  = 0.2000    time-step for ionic-motion
   TEIN   =    0.0    initial temperature
   TEBEG  =    0.0;   TEEND  =   0.0 temperature during run
   SMASS  =  -3.00    Nose mass-parameter (am)
   estimated Nose-frequenzy (Omega)   =  0.10E-29 period in steps =****** mass=  -0.156E-26a.u.
   SCALEE = 1.0000    scale energy and forces
   NPACO  =    256;   APACO  = 16.0  distance and # of slots for P.C.
   PSTRESS=    0.0 pullay stress

  Mass of Ions in am
   POMASS =  26.98 54.94
  Ionic Valenz
   ZVAL   =   3.00  7.00
  Atomic Wigner-Seitz radii
   RWIGS  =  -1.00 -1.00
  virtual crystal weights 
   VCA    =   1.00  1.00
   NELECT =     180.0000    total number of electrons
   NUPDOWN=      -1.0000    fix difference up-down

 DOS related values:
   EMIN   =  10.00;   EMAX   =-10.00  energy-range for DOS
   EFERMI =   0.00
   ISMEAR =     1;   SIGMA  =   0.20  broadening in eV -4-tet -1-fermi 0-gaus

 Electronic relaxation 2 (details)
   IALGO  =     58    algorithm
   LDIAG  =      T    sub-space diagonalisation (order eigenvalues)
   LSUBROT=      F    optimize rotation matrix (better conditioning)
   TURBO    =      0    0=normal 1=particle mesh
   IRESTART =      0    0=no restart 2=restart with 2 vectors
   NREBOOT  =      0    no. of reboots
   NMIN     =      0    reboot dimension
   EREF     =   0.00    reference energy to select bands
   IMIX   =      4    mixing-type and parameters
     AMIX     =   0.40;   BMIX     =  1.00
     AMIX_MAG =   1.60;   BMIX_MAG =  1.00
     AMIN     =   0.10
     WC   =   100.;   INIMIX=   1;  MIXPRE=   1;  MAXMIX= -45

 Intra band minimization:
   WEIMIN = 0.0000     energy-eigenvalue tresh-hold
   EBREAK =  0.22E-09  absolut break condition
   DEPER  =   0.30     relativ break condition  

   TIME   =   0.40     timestep for ELM

  volume/ion in A,a.u.               =      13.15        88.72
  Fermi-wavevector in a.u.,A,eV,Ry     =   1.186118  2.241439 19.141722  1.406877
  Thomas-Fermi vector in A             =   2.322298
 
 Write flags
   LWAVE        =      F    write WAVECAR
   LDOWNSAMPLE  =      F    k-point downsampling of WAVECAR
   LCHARG       =      F    write CHGCAR
   LVTOT        =      F    write LOCPOT, total local potential
   LVHAR        =      F    write LOCPOT, Hartree potential only
   LELF         =      F    write electronic localiz. function (ELF)
   LORBIT       =     10    0 simple, 1 ext, 2 COOP (PROOUT), +10 PAW based schemes


 Dipole corrections
   LMONO  =      F    monopole corrections only (constant potential shift)
   LDIPOL =      F    correct potential (dipole corrections)
   IDIPOL =      0    1-x, 2-y, 3-z, 4-all directions 
   EPSILON=  1.0000000 bulk dielectric constant

 Exchange correlation treatment:
   GGA     =    --    GGA type
   LEXCH   =     8    internal setting for exchange type
   VOSKOWN=      0    Vosko Wilk Nusair interpolation
   LHFCALC =     F    Hartree Fock is set to
   LHFONE  =     F    Hartree Fock one center treatment
   AEXX    =    0.0000 exact exchange contribution

 Linear response parameters
   LEPSILON=     F    determine dielectric tensor
   LRPA    =     F    only Hartree local field effects (RPA)
   LNABLA  =     F    use nabla operator in PAW spheres
   LVEL    =     F    velocity operator in full k-point grid
   LINTERFAST=   F  fast interpolation
   KINTER  =     0    interpolate to denser k-point grid
   CSHIFT  =0.1000    complex shift for real part using Kramers Kronig
   OMEGAMAX=  -1.0    maximum frequency
   DEG_THRESHOLD= 0.2000000E-02 threshold for treating states as degnerate
   RTIME   =   -0.100 relaxation time in fs
  (WPLASMAI=    0.000 imaginary part of plasma frequency in eV, 0.658/RTIME)
   DFIELD  = 0.0000000 0.0000000 0.0000000 field for delta impulse in time
 
 Orbital magnetization related:
   ORBITALMAG=     F  switch on orbital magnetization
   LCHIMAG   =     F  perturbation theory with respect to B field
   DQ        =  0.001000  dq finite difference perturbation B field
   LLRAUG    =     F  two centre corrections for induced B field



--------------------------------------------------------------------------------------------------------


 Static calculation
 charge density and potential will be updated during run
 spin polarized calculation
 Conjugate gradient for all bands (Freysoldt, et al. PRB 79, 241103 (2009))
 preconditioned conjugated gradient                                        
 perform sub-space diagonalisation
    before iterative eigenvector-optimisation
 modified Broyden-mixing scheme, WC =      100.0
 initial mixing is a Kerker type mixing with AMIX =  0.4000 and BMIX =      1.0000
 Hartree-type preconditioning will be used
 using additional bands           22
 reciprocal scheme for non local part
 use partial core corrections
 no Harris-corrections to forces 
 use gradient corrections 
 use of overlap-Matrix (Vanderbilt PP)
 Methfessel and Paxton  Order N= 1 SIGMA  =   0.20


--------------------------------------------------------------------------------------------------------


  energy-cutoff  :      404.80
  volume of cell :      473.27
      direct lattice vectors                 reciprocal lattice vectors
     8.250148166  0.000000000  0.000000000     0.121209944  0.000000000  0.000000000
     0.000000000  8.250148166  0.000000000     0.000000000  0.121209944  0.000000000
     0.000000000  0.000000000  6.953274261     0.000000000  0.000000000  0.143817137

  length of vectors
     8.250148166  8.250148166  6.953274261     0.121209944  0.121209944  0.143817137


 
 k-points in units of 2pi/SCALE and weight: automatic KPOINTS                       
   0.00000000  0.00000000  0.00000000       0.007
   0.02424199  0.00000000  0.00000000       0.027
   0.04848398  0.00000000  0.00000000       0.027
   0.02424199  0.02424199  0.00000000       0.027
   0.04848398  0.02424199  0.00000000       0.053
   0.04848398  0.04848398  0.00000000       0.027
   0.00000000  0.00000000  0.02396952       0.013
   0.02424199  0.00000000  0.02396952       0.053
   0.04848398  0.00000000  0.02396952       0.053
   0.02424199  0.02424199  0.02396952       0.053
   0.04848398  0.02424199  0.02396952       0.107
   0.04848398  0.04848398  0.02396952       0.053
   0.00000000  0.00000000  0.04793905       0.013
   0.02424199  0.00000000  0.04793905       0.053
   0.04848398  0.00000000  0.04793905       0.053
   0.02424199  0.02424199  0.04793905       0.053
   0.04848398  0.02424199  0.04793905       0.107
   0.04848398  0.04848398  0.04793905       0.053
   0.00000000  0.00000000  0.07190857       0.007
   0.02424199  0.00000000  0.07190857       0.027
   0.04848398  0.00000000  0.07190857       0.027
   0.02424199  0.02424199  0.07190857       0.027
   0.04848398  0.02424199  0.07190857       0.053
   0.04848398  0.04848398  0.07190857       0.027
 
 k-points in reciprocal lattice and weights: automatic KPOINTS                       
   0.00000000  0.00000000  0.00000000       0.007
   0.20000000  0.00000000  0.00000000       0.027
   0.40000000  0.00000000  0.00000000       0.027
   0.20000000  0.20000000  0.00000000       0.027
   0.40000000  0.20000000  0.00000000       0.053
   0.40000000  0.40000000  0.00000000       0.027
   0.00000000  0.00000000  0.16666667       0.013
   0.20000000  0.00000000  0.16666667       0.053
   0.40000000  0.00000000  0.16666667       0.053
   0.20000000  0.20000000  0.16666667       0.053
   0.40000000  0.20000000  0.16666667       0.107
   0.40000000  0.40000000  0.16666667       0.053
   0.00000000  0.00000000  0.33333333       0.013
   0.20000000  0.00000000  0.33333333       0.053
   0.40000000  0.00000000  0.33333333       0.053
   0.20000000  0.20000000  0.33333333       0.053
   0.40000000  0.20000000  0.33333333       0.107
   0.40000000  0.40000000  0.33333333       0.053
   0.00000000  0.00000000  0.50000000       0.007
   0.20000000  0.00000000  0.50000000       0.027
   0.40000000  0.00000000  0.50000000       0.027
   0.20000000  0.20000000  0.50000000       0.027
   0.40000000  0.20000000  0.50000000       0.053
   0.40000000  0.40000000  0.50000000       0.027
 
 position of ions in fractional coordinates (direct lattice) 
   0.00000000  0.00000000  0.00000000
   0.00000000  0.00000000  0.50000000
   0.00000000  0.33333333  0.00000000
   0.00000000  0.33333333  0.50000000
   0.00000000  0.66666667  0.00000000
   0.00000000  0.66666667  0.50000000
   0.33333333  0.00000000  0.00000000
   0.33333333  0.00000000  0.50000000
   0.33333333  0.33333333  0.00000000
   0.33333333  0.33333333  0.50000000
   0.33333333  0.66666667  0.00000000
   0.33333333  0.66666667  0.50000000
   0.66666667  0.00000000  0.00000000
   0.66666667  0.00000000  0.50000000
   0.66666667  0.33333333  0.00000000
   0.66666667  0.33333333  0.50000000
   0.66666667  0.66666667  0.00000000
   0.66666667  0.66666667  0.50000000
   0.16666667  0.16666667  0.25000000
   0.16666667  0.16666667  0.75000000
   0.16666667  0.50000000  0.25000000
   0.16666667  0.50000000  0.75000000
   0.16666667  0.83333333  0.25000000
   0.16666667  0.83333333  0.75000000
   0.50000000  0.16666667  0.25000000
   0.50000000  0.16666667  0.75000000
   0.50000000  0.50000000  0.25000000
   0.50000000  0.50000000  0.75000000
   0.50000000  0.83333333  0.25000000
   0.50000000  0.83333333  0.75000000
   0.83333333  0.16666667  0.25000000
   0.83333333  0.16666667  0.75000000
   0.83333333  0.50000000  0.25000000
   0.83333333  0.50000000  0.75000000
   0.83333333  0.83333333  0.25000000
   0.83333333  0.83333333  0.75000000
 
 position of ions in cartesian coordinates  (Angst):
   0.00000000  0.00000000  0.00000000
   0.00000000  0.00000000  3.47663713
   0.00000000  2.75004939  0.00000000
   0.00000000  2.75004939  3.47663713
   0.00000000  5.50009878  0.00000000
   0.00000000  5.50009878  3.47663713
   2.75004939  0.00000000  0.00000000
   2.75004939  0.00000000  3.47663713
   2.75004939  2.75004939  0.00000000
   2.75004939  2.75004939  3.47663713
   2.75004939  5.50009878  0.00000000
   2.75004939  5.50009878  3.47663713
   5.50009878  0.00000000  0.00000000
   5.50009878  0.00000000  3.47663713
   5.50009878  2.75004939  0.00000000
   5.50009878  2.75004939  3.47663713
   5.50009878  5.50009878  0.00000000
   5.50009878  5.50009878  3.47663713
   1.37502469  1.37502469  1.73831857
   1.37502469  1.37502469  5.21495570
   1.37502469  4.12507408  1.73831857
   1.37502469  4.12507408  5.21495570
   1.37502469  6.87512347  1.73831857
   1.37502469  6.87512347  5.21495570
   4.12507408  1.37502469  1.73831857
   4.12507408  1.37502469  5.21495570
   4.12507408  4.12507408  1.73831857
   4.12507408  4.12507408  5.21495570
   4.12507408  6.87512347  1.73831857
   4.12507408  6.87512347  5.21495570
   6.87512347  1.37502469  1.73831857
   6.87512347  1.37502469  5.21495570
   6.87512347  4.12507408  1.73831857
   6.87512347  4.12507408  5.21495570
   6.87512347  6.87512347  1.73831857
   6.87512347  6.87512347  5.21495570
 


--------------------------------------------------------------------------------------------------------


 k-point  1 :   0.0000 0.0000 0.0000  plane waves:    8799
 k-point  2 :   0.2000 0.0000 0.0000  plane waves:    8753
 k-point  3 :   0.4000 0.0000 0.0000  plane waves:    8757
 k-point  4 :   0.2000 0.2000 0.0000  plane waves:    8767
 k-point  5 :   0.4000 0.2000 0.0000  plane waves:    8761
 k-point  6 :   0.4000 0.4000 0.0000  plane waves:    8731
 k-point  7 :   0.0000 0.0000 0.1667  plane waves:    8763
 k-point  8 :   0.2000 0.0000 0.1667  plane waves:    8771
 k-point  9 :   0.4000 0.0000 0.1667  plane waves:    8747
 k-point 10 :   0.2000 0.2000 0.1667  plane waves:    8764
 k-point 11 :   0.4000 0.2000 0.1667  plane waves:    8768
 k-point 12 :   0.4000 0.4000 0.1667  plane waves:    8740
 k-point 13 :   0.0000 0.0000 0.3333  plane waves:    8743
 k-point 14 :   0.2000 0.0000 0.3333  plane waves:    8736
 k-point 15 :   0.4000 0.0000 0.3333  plane waves:    8753
 k-point 16 :   0.2000 0.2000 0.3333  plane waves:    8753
 k-point 17 :   0.4000 0.2000 0.3333  plane waves:    8743
 k-point 18 :   0.4000 0.4000 0.3333  plane waves:    8755
 k-point 19 :   0.0000 0.0000 0.5000  plane waves:    8742
 k-point 20 :   0.2000 0.0000 0.5000  plane waves:    8756
 k-point 21 :   0.4000 0.0000 0.5000  plane waves:    8744
 k-point 22 :   0.2000 0.2000 0.5000  plane waves:    8762
 k-point 23 :   0.4000 0.2000 0.5000  plane waves:    8732
 k-point 24 :   0.4000 0.4000 0.5000  plane waves:    8736

 maximum and minimum number of plane-waves per node :      2206     2165

 maximum number of plane-waves:      8799
 maximum index in each direction: 
   IXMAX=   13   IYMAX=   13   IZMAX=   11
   IXMIN=  -13   IYMIN=  -13   IZMIN=  -11


 parallel 3D FFT for wavefunctions:
    minimum data exchange during FFTs selected (reduces bandwidth)
 parallel 3D FFT for charge:
    minimum data exchange during FFTs selected (reduces bandwidth)


 total amount of memory used by VASP MPI-rank0   383621. kBytes
=======================================================================

   base      :      30000. kBytes
   nonl-proj :      16518. kBytes
   fftplans  :      21726. kBytes
   grid      :      14732. kBytes
   one-center:        279. kBytes
   wavefun   :     300366. kBytes
 
     INWAV:  cpu time    0.0000: real time    0.0000
 Broyden mixing: mesh for mixing (old mesh)
   NGX = 27   NGY = 27   NGZ = 23
  (NGX  =108   NGY  =108   NGZ  = 96)
  gives a total of  16767 points

 initial charge density was supplied:
 charge density of overlapping atoms calculated
 number of electron     180.0000000 magnetization       6.0000000
 keeping initial charge density in first step


--------------------------------------------------------------------------------------------------------


 Maximum index for augmentation-charges        11261 (set IRDMAX)


--------------------------------------------------------------------------------------------------------


 First call to EWALD:  gamma=   0.227
 Maximum number of real-space cells 3x 3x 3
 Maximum number of reciprocal cells 3x 3x 3

    FEWALD:  cpu time    0.0091: real time    0.0091


--------------------------------------- Iteration      1(   1)  ---------------------------------------


    POTLOK:  cpu time    0.2512: real time    0.2513
    SETDIJ:  cpu time    0.3202: real time    0.3204
    TRIAL :  cpu time    8.4152: real time    8.5749
    CORREC:  cpu time    0.0031: real time    0.0033
    --------------------------------------------
      LOOP:  cpu time    9.0902: real time    9.2590

 eigenvalue-minimisations  : 10752
 total energy-change (2. order) : 0.1351532E+04  (-0.5903797E+04)
 number of electron     180.0000000 magnetization       6.0000000
 augmentation part      180.0000000 magnetization       6.0000000

 Free energy of the ion-electron system (eV)
  ---------------------------------------------------
  alpha Z        PSCENC =       532.25742704
  Ewald energy   TEWEN  =     -8601.05107233
  -Hartree energ DENC   =     -1903.73857242
  -exchange      EXHF   =         0.00000000
  -V(xc)+E(xc)   XCENC  =      -664.10578080
  PAW double counting   =      8494.55058411    -7650.81563588
  entropy T*S    EENTRO =        -0.00206971
  eigenvalues    EBANDS =      2679.32092713
  atomic energy  EATOM  =      8465.11600846
  ---------------------------------------------------
  free energy    TOTEN  =      1351.53181560 eV

  energy without entropy =     1351.53388531  energy(sigma->0) =     1351.53250550


--------------------------------------------------------------------------------------------------------




--------------------------------------- Iteration      1(   2)  ---------------------------------------


    TRIAL :  cpu time    9.2198: real time    9.2540
    CORREC:  cpu time    0.0039: real time    0.0040
    --------------------------------------------
      LOOP:  cpu time    9.2249: real time    9.2607

 eigenvalue-minimisations  : 10752
 total energy-change (2. order) :-0.1411716E+04  (-0.1378810E+04)
 number of electron     180.0000000 magnetization       6.0000000
 augmentation part      180.0000000 magnetization       6.0000000

 Free energy of the ion-electron system (eV)
  ---------------------------------------------------
  alpha Z        PSCENC =       532.25742704
  Ewald energy   TEWEN  =     -8601.05107233
  -Hartree energ DENC   =     -1903.73857242
  -exchange      EXHF   =         0.00000000
  -V(xc)+E(xc)   XCENC  =      -664.10578080
  PAW double counting   =      8494.55058411    -7650.81563588
  entropy T*S    EENTRO =         0.00235347
  eigenvalues    EBANDS =      1267.60087712
  atomic energy  EATOM  =      8465.11600846
  ---------------------------------------------------
  free energy    TOTEN  =       -60.18381123 eV

  energy without entropy =      -60.18616470  energy(sigma->0) =      -60.18459572


--------------------------------------------------------------------------------------------------------




--------------------------------------- Iteration      1(   3)  ---------------------------------------


    TRIAL :  cpu time   11.8229: real time   11.8745
    CORREC:  cpu time    0.0045: real time    0.0046
    --------------------------------------------
      LOOP:  cpu time   11.8288: real time   11.8823

 eigenvalue-minimisations  : 16424
 total energy-change (2. order) :-0.1778088E+03  (-0.1596460E+03)
 number of electron     180.0000000 magnetization       6.0000000
 augmentation part      180.0000000 magnetization       6.0000000

 Free energy of the ion-electron system (eV)
  ---------------------------------------------------
  alpha Z        PSCENC =       532.25742704
  Ewald energy   TEWEN  =     -8601.05107233
  -Hartree energ DENC   =     -1903.73857242
  -exchange      EXHF   =         0.00000000
  -V(xc)+E(xc)   XCENC  =      -664.10578080
  PAW double counting   =      8494.55058411    -7650.81563588
  entropy T*S    EENTRO =         0.01213182
  eigenvalues    EBANDS =      1089.78225393
  atomic energy  EATOM  =      8465.11600846
  ---------------------------------------------------
  free energy    TOTEN  =      -237.99265606 eV

  energy without entropy =     -238.00478788  energy(sigma->0) =     -237.99670000


--------------------------------------------------------------------------------------------------------




--------------------------------------- Iteration      1(   4)  ---------------------------------------


    TRIAL :  cpu time   13.0748: real time   13.9953
    CORREC:  cpu time    0.0048: real time    0.0057
    --------------------------------------------
      LOOP:  cpu time   13.0805: real time   14.0037

 eigenvalue-minimisations  : 17544
 total energy-change (2. order) :-0.2872351E+02  (-0.2576753E+02)
 number of electron     180.0000000 magnetization       6.0000000
 augmentation part      180.0000000 magnetization       6.0000000

 Free energy of the ion-electron system (eV)
  ---------------------------------------------------
  alpha Z        PSCENC =       532.25742704
  Ewald energy   TEWEN  =     -8601.05107233
  -Hartree energ DENC   =     -1903.73857242
  -exchange      EXHF   =         0.00000000
  -V(xc)+E(xc)   XCENC  =      -664.10578080
  PAW double counting   =      8494.55058411    -7650.81563588
  entropy T*S    EENTRO =         0.02318588
  eigenvalues    EBANDS =      1061.04768550
  atomic energy  EATOM  =      8465.11600846
  ---------------------------------------------------
  free energy    TOTEN  =      -266.71617043 eV

  energy without entropy =     -266.73935631  energy(sigma->0) =     -266.72389906


--------------------------------------------------------------------------------------------------------




--------------------------------------- Iteration      1(   5)  ---------------------------------------


    TRIAL :  cpu time   12.7046: real time   12.7612
    CORREC:  cpu time    0.0048: real time    0.0049
    --------------------------------------------
      LOOP:  cpu time   12.7102: real time   12.7692

 eigenvalue-minimisations  : 17832
 total energy-change (2. order) :-0.2943212E+01  (-0.2823643E+01)
 number of electron     180.0000000 magnetization       6.0000000
 augmentation part      180.0000000 magnetization       6.0000000

 Free energy of the ion-electron system (eV)
  ---------------------------------------------------
  alpha Z        PSCENC =       532.25742704
  Ewald energy   TEWEN  =     -8601.05107233
  -Hartree energ DENC   =     -1903.73857242
  -exchange      EXHF   =         0.00000000
  -V(xc)+E(xc)   XCENC  =      -664.10578080
  PAW double counting   =      8494.55058411    -7650.81563588
  entropy T*S    EENTRO =         0.02788983
  eigenvalues    EBANDS =      1058.09976974
  atomic energy  EATOM  =      8465.11600846
  ---------------------------------------------------
  free energy    TOTEN  =      -269.65938225 eV

  energy without entropy =     -269.68727208  energy(sigma->0) =     -269.66867886


--------------------------------------------------------------------------------------------------------




--------------------------------------- Iteration      1(   6)  ---------------------------------------


    TRIAL :  cpu time   12.5242: real time   12.6662
    CORREC:  cpu time    0.0048: real time    0.0049
    --------------------------------------------
      LOOP:  cpu time   12.5299: real time   12.6745

 eigenvalue-minimisations  : 17736
 total energy-change (2. order) :-0.2406597E+00  (-0.2357955E+00)
 number of electron     180.0000000 magnetization       6.0000000
 augmentation part      180.0000000 magnetization       6.0000000

 Free energy of the ion-electron system (eV)
  ---------------------------------------------------
  alpha Z        PSCENC =       532.25742704
  Ewald energy   TEWEN  =     -8601.05107233
  -Hartree energ DENC   =     -1903.73857242
  -exchange      EXHF   =         0.00000000
  -V(xc)+E(xc)   XCENC  =      -664.10578080
  PAW double counting   =      8494.55058411    -7650.81563588
  entropy T*S    EENTRO =         0.02999756
  eigenvalues    EBANDS =      1057.85700230
  atomic energy  EATOM  =      8465.11600846
  ---------------------------------------------------
  free energy    TOTEN  =      -269.90004196 eV

  energy without entropy =     -269.93003951  energy(sigma->0) =     -269.91004114


--------------------------------------------------------------------------------------------------------




--------------------------------------- Iteration      1(   7)  ---------------------------------------


    TRIAL :  cpu time   13.4681: real time   13.5237
    CORREC:  cpu time    0.0047: real time    0.0049
    --------------------------------------------
      LOOP:  cpu time   13.4758: real time   13.5317

 eigenvalue-minimisations  : 18144
 total energy-change (2. order) :-0.2595043E-01  (-0.2571318E-01)
 number of electron     180.0000000 magnetization       6.0000000
 augmentation part      180.0000000 magnetization       6.0000000

 Free energy of the ion-electron system (eV)
  ---------------------------------------------------
  alpha Z        PSCENC =       532.25742704
  Ewald energy   TEWEN  =     -8601.05107233
  -Hartree energ DENC   =     -1903.73857242
  -exchange      EXHF   =         0.00000000
  -V(xc)+E(xc)   XCENC  =      -664.10578080
  PAW double counting   =      8494.55058411    -7650.81563588
  entropy T*S    EENTRO =         0.03052806
  eigenvalues    EBANDS =      1057.83052138
  atomic energy  EATOM  =      8465.11600846
  ---------------------------------------------------
  free energy    TOTEN  =      -269.92599238 eV

  energy without entropy =     -269.95652044  energy(sigma->0) =     -269.93616840


--------------------------------------------------------------------------------------------------------




--------------------------------------- Iteration      1(   8)  ---------------------------------------


    TRIAL :  cpu time   12.2545: real time   12.9606
    CORREC:  cpu time    0.0049: real time    0.0050
    CHARGE:  cpu time    0.7083: real time    0.7083
    --------------------------------------------
      LOOP:  cpu time   12.9691: real time   13.6774

 eigenvalue-minimisations  : 17344
 total energy-change (2. order) :-0.1997717E-02  (-0.1986105E-02)
 number of electron     179.9999997 magnetization       4.5285221
 augmentation part       42.8051967 magnetization       2.6030199

 Free energy of the ion-electron system (eV)
  ---------------------------------------------------
  alpha Z        PSCENC =       532.25742704
  Ewald energy   TEWEN  =     -8601.05107233
  -Hartree energ DENC   =     -1903.73857242
  -exchange      EXHF   =         0.00000000
  -V(xc)+E(xc)   XCENC  =      -664.10578080
  PAW double counting   =      8494.55058411    -7650.81563588
  entropy T*S    EENTRO =         0.03067079
  eigenvalues    EBANDS =      1057.82838093
  atomic energy  EATOM  =      8465.11600846
  ---------------------------------------------------
  free energy    TOTEN  =      -269.92799010 eV

  energy without entropy =     -269.95866089  energy(sigma->0) =     -269.93821369


--------------------------------------------------------------------------------------------------------




--------------------------------------- Iteration      1(   9)  ---------------------------------------


    POTLOK:  cpu time    0.2508: real time    0.2514
    SETDIJ:  cpu time    0.3446: real time    0.3460
    TRIAL :  cpu time    4.1681: real time    4.9570
    CORREC:  cpu time    2.1398: real time    2.1411
    CHARGE:  cpu time    0.7744: real time    0.7749
    --------------------------------------------
      LOOP:  cpu time    7.6820: real time    8.4771

 eigenvalue-minimisations  :     0
 total energy-change (2. order) : 0.1999218E+03  (-0.1448094E+03)
 number of electron     179.9999996 magnetization       4.5259965
 augmentation part       55.0708076 magnetization       2.9804070

 Free energy of the ion-electron system (eV)
  ---------------------------------------------------
  alpha Z        PSCENC =       532.25742704
  Ewald energy   TEWEN  =     -8601.05107233
  -Hartree energ DENC   =      -849.05450067
  -exchange      EXHF   =         0.00000000
  -V(xc)+E(xc)   XCENC  =      -694.00141344
  PAW double counting   =     12781.58873483   -11835.41935727
  entropy T*S    EENTRO =         0.03271022
  eigenvalues    EBANDS =       130.52731465
  atomic energy  EATOM  =      8465.11600846
  ---------------------------------------------------
  free energy    TOTEN  =       -70.00618794 eV

  energy without entropy =      -70.03889816  energy(sigma->0) =      -70.01709135


--------------------------------------------------------------------------------------------------------




--------------------------------------- Iteration      1(  10)  ---------------------------------------


    POTLOK:  cpu time    0.2468: real time    0.2468
    SETDIJ:  cpu time    0.3316: real time    0.3318
    TRIAL :  cpu time    4.1960: real time    4.2083
    CORREC:  cpu time    2.0653: real time    2.1269
    CHARGE:  cpu time    0.7026: real time    0.7026
    --------------------------------------------
      LOOP:  cpu time    7.5678: real time    7.6427

 eigenvalue-minimisations  :     0
 total energy-change (2. order) :-0.1430300E+03  (-0.8803408E+01)
 number of electron     179.9999996 magnetization       4.7657142
 augmentation part       58.3151827 magnetization       3.2597838

 Free energy of the ion-electron system (eV)
  ---------------------------------------------------
  alpha Z        PSCENC =       532.25742704
  Ewald energy   TEWEN  =     -8601.05107233
  -Hartree energ DENC   =     -1408.41041351
  -exchange      EXHF   =         0.00000000
  -V(xc)+E(xc)   XCENC  =      -674.48609769
  PAW double counting   =     13778.69729404   -12953.98209502
  entropy T*S    EENTRO =         0.04102181
  eigenvalues    EBANDS =       648.79007299
  atomic energy  EATOM  =      8465.11600846
  ---------------------------------------------------
  free energy    TOTEN  =      -213.03616581 eV

  energy without entropy =     -213.07718762  energy(sigma->0) =     -213.04983974


--------------------------------------------------------------------------------------------------------




--------------------------------------- Iteration      1(  11)  ---------------------------------------


    POTLOK:  cpu time    0.2477: real time    0.2476
    SETDIJ:  cpu time    0.3455: real time    0.3459
    TRIAL :  cpu time    4.2316: real time    4.2554
    CORREC:  cpu time    2.0826: real time    2.0919
    CHARGE:  cpu time    0.7061: real time    0.7061
    --------------------------------------------
      LOOP:  cpu time    7.6204: real time    7.6544

 eigenvalue-minimisations  :     0
 total energy-change (2. order) :-0.8566671E+01  (-0.8985313E+01)
 number of electron     179.9999996 magnetization       4.6368818
 augmentation part       59.0701028 magnetization       3.1633655

 Free energy of the ion-electron system (eV)
  ---------------------------------------------------
  alpha Z        PSCENC =       532.25742704
  Ewald energy   TEWEN  =     -8601.05107233
  -Hartree energ DENC   =     -1603.27855741
  -exchange      EXHF   =         0.00000000
  -V(xc)+E(xc)   XCENC  =      -667.43617630
  PAW double counting   =     14533.50643796   -13740.74467493
  entropy T*S    EENTRO =         0.02507058
  eigenvalues    EBANDS =       859.98674865
  atomic energy  EATOM  =      8465.11600846
  ---------------------------------------------------
  free energy    TOTEN  =      -221.60283706 eV

  energy without entropy =     -221.62790764  energy(sigma->0) =     -221.61119392


--------------------------------------------------------------------------------------------------------




--------------------------------------- Iteration      1(  12)  ---------------------------------------


    POTLOK:  cpu time    0.2467: real time    0.2467
    SETDIJ:  cpu time    0.3227: real time    0.3226
    TRIAL :  cpu time    4.2097: real time    4.2722
    CORREC:  cpu time    2.0733: real time    2.0825
    CHARGE:  cpu time    0.7006: real time    0.7509
    --------------------------------------------
      LOOP:  cpu time    7.5581: real time    7.6811

 eigenvalue-minimisations  :     0
 total energy-change (2. order) :-0.9139349E+01  (-0.4648170E+01)
 number of electron     179.9999996 magnetization       4.6879093
 augmentation part       57.9739979 magnetization       3.1934558

 Free energy of the ion-electron system (eV)
  ---------------------------------------------------
  alpha Z        PSCENC =       532.25742704
  Ewald energy   TEWEN  =     -8601.05107233
  -Hartree energ DENC   =     -1711.17979766
  -exchange      EXHF   =         0.00000000
  -V(xc)+E(xc)   XCENC  =      -664.16337238
  PAW double counting   =     14416.84743742   -13615.90523057
  entropy T*S    EENTRO =         0.02788383
  eigenvalues    EBANDS =       947.31134299
  atomic energy  EATOM  =      8465.11600846
  ---------------------------------------------------
  free energy    TOTEN  =      -230.74218646 eV

  energy without entropy =     -230.77007029  energy(sigma->0) =     -230.75148107


--------------------------------------------------------------------------------------------------------




--------------------------------------- Iteration      1(  13)  ---------------------------------------


    POTLOK:  cpu time    0.2477: real time    0.2476
    SETDIJ:  cpu time    0.3203: real time    0.3203
    TRIAL :  cpu time    4.7725: real time    4.7757
    CORREC:  cpu time    2.5278: real time    2.5521
    CHARGE:  cpu time    0.7053: real time    0.7059
    --------------------------------------------
      LOOP:  cpu time    8.5811: real time    8.6101

 eigenvalue-minimisations  :     0
 total energy-change (2. order) :-0.4604364E+01  (-0.7287749E+00)
 number of electron     179.9999996 magnetization       4.5381935
 augmentation part       57.3757664 magnetization       3.1497851

 Free energy of the ion-electron system (eV)
  ---------------------------------------------------
  alpha Z        PSCENC =       532.25742704
  Ewald energy   TEWEN  =     -8601.05107233
  -Hartree energ DENC   =     -1687.78343883
  -exchange      EXHF   =         0.00000000
  -V(xc)+E(xc)   XCENC  =      -665.35515733
  PAW double counting   =     14189.58161514   -13365.46621101
  entropy T*S    EENTRO =         0.02461200
  eigenvalues    EBANDS =       897.32639416
  atomic energy  EATOM  =      8465.11600846
  ---------------------------------------------------
  free energy    TOTEN  =      -235.34655088 eV

  energy without entropy =     -235.37116288  energy(sigma->0) =     -235.35475488


--------------------------------------------------------------------------------------------------------




--------------------------------------- Iteration      1(  14)  ---------------------------------------


    POTLOK:  cpu time    0.2471: real time    0.2471
    SETDIJ:  cpu time    0.3196: real time    0.3196
    TRIAL :  cpu time    4.2734: real time    4.2955
    CORREC:  cpu time    2.0673: real time    2.0793
    CHARGE:  cpu time    0.7273: real time    0.7274
    --------------------------------------------
      LOOP:  cpu time    7.6381: real time    7.6734

 eigenvalue-minimisations  :     0
 total energy-change (2. order) :-0.7229715E+00  (-0.8620431E+00)
 number of electron     179.9999996 magnetization       4.5950953
 augmentation part       57.3121868 magnetization       3.0934134

 Free energy of the ion-electron system (eV)
  ---------------------------------------------------
  alpha Z        PSCENC =       532.25742704
  Ewald energy   TEWEN  =     -8601.05107233
  -Hartree energ DENC   =     -1655.38348630
  -exchange      EXHF   =         0.00000000
  -V(xc)+E(xc)   XCENC  =      -666.56872783
  PAW double counting   =     13888.79442280   -13055.37396367
  entropy T*S    EENTRO =         0.02367603
  eigenvalues    EBANDS =       856.11525742
  atomic energy  EATOM  =      8465.11600846
  ---------------------------------------------------
  free energy    TOTEN  =      -236.06952242 eV

  energy without entropy =     -236.09319845  energy(sigma->0) =     -236.07741443


--------------------------------------------------------------------------------------------------------




--------------------------------------- Iteration      1(  15)  ---------------------------------------


    POTLOK:  cpu time    0.2475: real time    0.2475
    SETDIJ:  cpu time    0.3563: real time    0.3674
    TRIAL :  cpu time    4.2111: real time    4.9962
    CORREC:  cpu time    2.0702: real time    2.0882
    CHARGE:  cpu time    0.7060: real time    0.7060
    --------------------------------------------
      LOOP:  cpu time    7.5956: real time    8.4108

 eigenvalue-minimisations  :     0
 total energy-change (2. order) :-0.8617158E+00  (-0.3601745E+00)
 number of electron     179.9999996 magnetization       4.6024236
 augmentation part       57.8797863 magnetization       3.1041139

 Free energy of the ion-electron system (eV)
  ---------------------------------------------------
  alpha Z        PSCENC =       532.25742704
  Ewald energy   TEWEN  =     -8601.05107233
  -Hartree energ DENC   =     -1640.21813494
  -exchange      EXHF   =         0.00000000
  -V(xc)+E(xc)   XCENC  =      -667.07183605
  PAW double counting   =     13299.78996184   -12461.89845208
  entropy T*S    EENTRO =         0.02298902
  eigenvalues    EBANDS =       836.12118379
  atomic energy  EATOM  =      8465.11600846
  ---------------------------------------------------
  free energy    TOTEN  =      -236.93123824 eV

  energy without entropy =     -236.95422726  energy(sigma->0) =     -236.93890125


--------------------------------------------------------------------------------------------------------




--------------------------------------- Iteration      1(  16)  ---------------------------------------


    POTLOK:  cpu time    0.2471: real time    0.2475
    SETDIJ:  cpu time    0.3220: real time    0.3222
    TRIAL :  cpu time    4.1719: real time    4.1749
    CORREC:  cpu time    2.1361: real time    2.2270
    CHARGE:  cpu time    0.7206: real time    0.7330
    --------------------------------------------
      LOOP:  cpu time    7.6064: real time    7.7142

 eigenvalue-minimisations  :     0
 total energy-change (2. order) :-0.3624812E+00  (-0.1155666E+00)
 number of electron     179.9999996 magnetization       4.5048248
 augmentation part       58.1143684 magnetization       3.0784553

 Free energy of the ion-electron system (eV)
  ---------------------------------------------------
  alpha Z        PSCENC =       532.25742704
  Ewald energy   TEWEN  =     -8601.05107233
  -Hartree energ DENC   =     -1663.37354951
  -exchange      EXHF   =         0.00000000
  -V(xc)+E(xc)   XCENC  =      -666.15229378
  PAW double counting   =     13102.27364967   -12269.37831374
  entropy T*S    EENTRO =         0.02102811
  eigenvalues    EBANDS =       862.99143573
  atomic energy  EATOM  =      8465.11600846
  ---------------------------------------------------
  free energy    TOTEN  =      -237.29371945 eV

  energy without entropy =     -237.31474756  energy(sigma->0) =     -237.30072882


--------------------------------------------------------------------------------------------------------




--------------------------------------- Iteration      1(  17)  ---------------------------------------


    POTLOK:  cpu time    0.2783: real time    0.2842
    SETDIJ:  cpu time    0.3136: real time    0.3138
    TRIAL :  cpu time    4.3456: real time    4.3479
    CORREC:  cpu time    2.0715: real time    2.0746
    CHARGE:  cpu time    0.7160: real time    0.7161
    --------------------------------------------
      LOOP:  cpu time    7.9647: real time    8.7513

 eigenvalue-minimisations  :     0
 total energy-change (2. order) :-0.1171754E+00  (-0.2129556E+00)
 number of electron     179.9999996 magnetization       4.4640105
 augmentation part       58.1829991 magnetization       3.0902562

 Free energy of the ion-electron system (eV)
  ---------------------------------------------------
  alpha Z        PSCENC =       532.25742704
  Ewald energy   TEWEN  =     -8601.05107233
  -Hartree energ DENC   =     -1673.63865992
  -exchange      EXHF   =         0.00000000
  -V(xc)+E(xc)   XCENC  =      -665.71827791
  PAW double counting   =     13058.12379997   -12227.59557958
  entropy T*S    EENTRO =         0.02085718
  eigenvalues    EBANDS =       875.07443128
  atomic energy  EATOM  =      8465.11600846
  ---------------------------------------------------
  free energy    TOTEN  =      -237.41089487 eV

  energy without entropy =     -237.43175206  energy(sigma->0) =     -237.41784727


--------------------------------------------------------------------------------------------------------




--------------------------------------- Iteration      1(  18)  ---------------------------------------


    POTLOK:  cpu time    0.2479: real time    0.2479
    SETDIJ:  cpu time    0.3116: real time    0.3176
    TRIAL :  cpu time    4.2132: real time    4.2471
    CORREC:  cpu time    2.1121: real time    2.1136
    CHARGE:  cpu time    0.6894: real time    0.7197
    --------------------------------------------
      LOOP:  cpu time    7.5815: real time    7.6533

 eigenvalue-minimisations  :     0
 total energy-change (2. order) :-0.2129989E+00  (-0.6304230E-01)
 number of electron     179.9999996 magnetization       4.4641747
 augmentation part       57.9731946 magnetization       3.0842966

 Free energy of the ion-electron system (eV)
  ---------------------------------------------------
  alpha Z        PSCENC =       532.25742704
  Ewald energy   TEWEN  =     -8601.05107233
  -Hartree energ DENC   =     -1674.20559040
  -exchange      EXHF   =         0.00000000
  -V(xc)+E(xc)   XCENC  =      -665.42929401
  PAW double counting   =     12998.96222058   -12169.29533131
  entropy T*S    EENTRO =         0.02121065
  eigenvalues    EBANDS =       876.00088103
  atomic energy  EATOM  =      8465.11600846
  ---------------------------------------------------
  free energy    TOTEN  =      -237.62389376 eV

  energy without entropy =     -237.64510441  energy(sigma->0) =     -237.63096398


--------------------------------------------------------------------------------------------------------




--------------------------------------- Iteration      1(  19)  ---------------------------------------


    POTLOK:  cpu time    0.2474: real time    0.2474
    SETDIJ:  cpu time    0.3671: real time    0.3671
    TRIAL :  cpu time    4.1894: real time    4.1951
    CORREC:  cpu time    2.1286: real time    2.1298
    CHARGE:  cpu time    0.7046: real time    0.7625
    --------------------------------------------
      LOOP:  cpu time    7.6414: real time    7.7062

 eigenvalue-minimisations  :     0
 total energy-change (2. order) :-0.6289561E-01  (-0.5118354E-01)
 number of electron     179.9999996 magnetization       4.4119072
 augmentation part       57.8014545 magnetization       3.0690460

 Free energy of the ion-electron system (eV)
  ---------------------------------------------------
  alpha Z        PSCENC =       532.25742704
  Ewald energy   TEWEN  =     -8601.05107233
  -Hartree energ DENC   =     -1663.24337844
  -exchange      EXHF   =         0.00000000
  -V(xc)+E(xc)   XCENC  =      -665.73028796
  PAW double counting   =     12976.96412927   -12145.11723242
  entropy T*S    EENTRO =         0.02172643
  eigenvalues    EBANDS =       863.09640637
  atomic energy  EATOM  =      8465.11600846
  ---------------------------------------------------
  free energy    TOTEN  =      -237.68678936 eV

  energy without entropy =     -237.70851580  energy(sigma->0) =     -237.69403151


--------------------------------------------------------------------------------------------------------




--------------------------------------- Iteration      1(  20)  ---------------------------------------


    POTLOK:  cpu time    0.2476: real time    0.2476
    SETDIJ:  cpu time    0.3786: real time    0.3788
    TRIAL :  cpu time    4.1571: real time    4.2246
    CORREC:  cpu time    2.0951: real time    2.0966
    CHARGE:  cpu time    0.7065: real time    0.7065
    --------------------------------------------
      LOOP:  cpu time    7.5871: real time    7.6585

 eigenvalue-minimisations  :     0
 total energy-change (2. order) :-0.5119491E-01  (-0.4877298E-01)
 number of electron     179.9999996 magnetization       4.4171257
 augmentation part       57.8668707 magnetization       3.0726952

 Free energy of the ion-electron system (eV)
  ---------------------------------------------------
  alpha Z        PSCENC =       532.25742704
  Ewald energy   TEWEN  =     -8601.05107233
  -Hartree energ DENC   =     -1656.16147473
  -exchange      EXHF   =         0.00000000
  -V(xc)+E(xc)   XCENC  =      -665.90651743
  PAW double counting   =     12969.95579219   -12136.53905037
  entropy T*S    EENTRO =         0.02287325
  eigenvalues    EBANDS =       854.56917648
  atomic energy  EATOM  =      8465.11600846
  ---------------------------------------------------
  free energy    TOTEN  =      -237.73798427 eV

  energy without entropy =     -237.76085752  energy(sigma->0) =     -237.74560869


--------------------------------------------------------------------------------------------------------




--------------------------------------- Iteration      1(  21)  ---------------------------------------


    POTLOK:  cpu time    0.2475: real time    0.2475
    SETDIJ:  cpu time    0.6476: real time    0.6479
    TRIAL :  cpu time    4.8533: real time    4.8675
    CORREC:  cpu time    2.0789: real time    2.0802
    CHARGE:  cpu time    0.7027: real time    0.7026
    --------------------------------------------
      LOOP:  cpu time    8.5361: real time    8.5530

 eigenvalue-minimisations  :     0
 total energy-change (2. order) :-0.4878887E-01  (-0.1231727E-01)
 number of electron     179.9999996 magnetization       4.3928880
 augmentation part       57.9262791 magnetization       3.0620859

 Free energy of the ion-electron system (eV)
  ---------------------------------------------------
  alpha Z        PSCENC =       532.25742704
  Ewald energy   TEWEN  =     -8601.05107233
  -Hartree energ DENC   =     -1662.16572693
  -exchange      EXHF   =         0.00000000
  -V(xc)+E(xc)   XCENC  =      -665.61047832
  PAW double counting   =     12989.51504571   -12157.25107917
  entropy T*S    EENTRO =         0.02292498
  eigenvalues    EBANDS =       861.38022915
  atomic energy  EATOM  =      8465.11600846
  ---------------------------------------------------
  free energy    TOTEN  =      -237.78677314 eV

  energy without entropy =     -237.80969813  energy(sigma->0) =     -237.79441481


--------------------------------------------------------------------------------------------------------




--------------------------------------- Iteration      1(  22)  ---------------------------------------


    POTLOK:  cpu time    0.2471: real time    0.2471
    SETDIJ:  cpu time    0.3833: real time    0.3959
    TRIAL :  cpu time    4.1789: real time    4.2260
    CORREC:  cpu time    2.0640: real time    2.8540
    CHARGE:  cpu time    0.7107: real time    0.7106
    --------------------------------------------
      LOOP:  cpu time    7.5919: real time    8.4425

 eigenvalue-minimisations  :     0
 total energy-change (2. order) :-0.1234369E-01  (-0.1433975E-01)
 number of electron     179.9999996 magnetization       4.3760172
 augmentation part       58.0073084 magnetization       3.0586599

 Free energy of the ion-electron system (eV)
  ---------------------------------------------------
  alpha Z        PSCENC =       532.25742704
  Ewald energy   TEWEN  =     -8601.05107233
  -Hartree energ DENC   =     -1665.91991509
  -exchange      EXHF   =         0.00000000
  -V(xc)+E(xc)   XCENC  =      -665.46045028
  PAW double counting   =     12997.94802540   -12166.42097111
  entropy T*S    EENTRO =         0.02353619
  eigenvalues    EBANDS =       865.70890610
  atomic energy  EATOM  =      8465.11600846
  ---------------------------------------------------
  free energy    TOTEN  =      -237.79911683 eV

  energy without entropy =     -237.82265302  energy(sigma->0) =     -237.80696223


--------------------------------------------------------------------------------------------------------




--------------------------------------- Iteration      1(  23)  ---------------------------------------


    POTLOK:  cpu time    0.2481: real time    0.2482
    SETDIJ:  cpu time    0.3525: real time    0.3527
    TRIAL :  cpu time    4.2201: real time    4.2240
    CORREC:  cpu time    2.0786: real time    2.0800
    CHARGE:  cpu time    0.7063: real time    0.7065
    --------------------------------------------
      LOOP:  cpu time    7.6141: real time    7.6199

 eigenvalue-minimisations  :     0
 total energy-change (2. order) :-0.1432414E-01  (-0.1414682E-01)
 number of electron     179.9999996 magnetization       4.3689360
 augmentation part       57.9747429 magnetization       3.0489432

 Free energy of the ion-electron system (eV)
  ---------------------------------------------------
  alpha Z        PSCENC =       532.25742704
  Ewald energy   TEWEN  =     -8601.05107233
  -Hartree energ DENC   =     -1670.44432381
  -exchange      EXHF   =         0.00000000
  -V(xc)+E(xc)   XCENC  =      -665.26286833
  PAW double counting   =     13003.45376710   -12172.81376184
  entropy T*S    EENTRO =         0.02447084
  eigenvalues    EBANDS =       870.90784655
  atomic energy  EATOM  =      8465.11600846
  ---------------------------------------------------
  free energy    TOTEN  =      -237.81344097 eV

  energy without entropy =     -237.83791182  energy(sigma->0) =     -237.82159792


--------------------------------------------------------------------------------------------------------




--------------------------------------- Iteration      1(  24)  ---------------------------------------


    POTLOK:  cpu time    0.2473: real time    0.2474
    SETDIJ:  cpu time    0.3249: real time    0.3249
    TRIAL :  cpu time    4.1708: real time    4.9707
    CORREC:  cpu time    2.1386: real time    2.1408
    CHARGE:  cpu time    0.7714: real time    0.7713
    --------------------------------------------
      LOOP:  cpu time    7.6569: real time    8.4603

 eigenvalue-minimisations  :     0
 total energy-change (2. order) :-0.1414780E-01  (-0.8158694E-02)
 number of electron     179.9999996 magnetization       4.3592602
 augmentation part       57.9084144 magnetization       3.0422203

 Free energy of the ion-electron system (eV)
  ---------------------------------------------------
  alpha Z        PSCENC =       532.25742704
  Ewald energy   TEWEN  =     -8601.05107233
  -Hartree energ DENC   =     -1668.60822457
  -exchange      EXHF   =         0.00000000
  -V(xc)+E(xc)   XCENC  =      -665.27871601
  PAW double counting   =     12996.92967711   -12165.81197504
  entropy T*S    EENTRO =         0.02484401
  eigenvalues    EBANDS =       868.59481573
  atomic energy  EATOM  =      8465.11600846
  ---------------------------------------------------
  free energy    TOTEN  =      -237.82758877 eV

  energy without entropy =     -237.85243278  energy(sigma->0) =     -237.83587011


--------------------------------------------------------------------------------------------------------




--------------------------------------- Iteration      1(  25)  ---------------------------------------


    POTLOK:  cpu time    0.2471: real time    0.2473
    SETDIJ:  cpu time    0.3527: real time    0.3527
    TRIAL :  cpu time    4.2005: real time    4.2110
    CORREC:  cpu time    2.1485: real time    2.1741
    CHARGE:  cpu time    0.7058: real time    0.7061
    --------------------------------------------
      LOOP:  cpu time    7.6591: real time    7.6968

 eigenvalue-minimisations  :     0
 total energy-change (2. order) :-0.8162337E-02  (-0.9272577E-02)
 number of electron     179.9999996 magnetization       4.3525180
 augmentation part       57.9251867 magnetization       3.0452900

 Free energy of the ion-electron system (eV)
  ---------------------------------------------------
  alpha Z        PSCENC =       532.25742704
  Ewald energy   TEWEN  =     -8601.05107233
  -Hartree energ DENC   =     -1664.77537098
  -exchange      EXHF   =         0.00000000
  -V(xc)+E(xc)   XCENC  =      -665.36790635
  PAW double counting   =     12988.59116193   -12156.63152797
  entropy T*S    EENTRO =         0.02520815
  eigenvalues    EBANDS =       864.00068509
  atomic energy  EATOM  =      8465.11600846
  ---------------------------------------------------
  free energy    TOTEN  =      -237.83575111 eV

  energy without entropy =     -237.86095925  energy(sigma->0) =     -237.84415382


--------------------------------------------------------------------------------------------------------




--------------------------------------- Iteration      1(  26)  ---------------------------------------


    POTLOK:  cpu time    0.2472: real time    0.2471
    SETDIJ:  cpu time    0.3226: real time    0.3226
    TRIAL :  cpu time    4.2263: real time    4.2586
    CORREC:  cpu time    2.1053: real time    2.1074
    CHARGE:  cpu time    0.7268: real time    0.7268
    --------------------------------------------
      LOOP:  cpu time    7.6326: real time    7.6684

 eigenvalue-minimisations  :     0
 total energy-change (2. order) :-0.9242843E-02  (-0.2657809E-02)
 number of electron     179.9999996 magnetization       4.3453463
 augmentation part       57.9642089 magnetization       3.0452879

 Free energy of the ion-electron system (eV)
  ---------------------------------------------------
  alpha Z        PSCENC =       532.25742704
  Ewald energy   TEWEN  =     -8601.05107233
  -Hartree energ DENC   =     -1665.02855117
  -exchange      EXHF   =         0.00000000
  -V(xc)+E(xc)   XCENC  =      -665.27458310
  PAW double counting   =     12987.52798666   -12155.64384471
  entropy T*S    EENTRO =         0.02524786
  eigenvalues    EBANDS =       864.22642706
  atomic energy  EATOM  =      8465.11600846
  ---------------------------------------------------
[...]
  8.439  14.381   0.000  -0.000   0.000   0.001  -0.001   0.001
 14.381  24.507   0.000  -0.001   0.000   0.001  -0.002   0.001
  0.000   0.000   1.996   0.000  -0.000   5.749   0.000  -0.000
 -0.000  -0.001   0.000   1.996   0.000   0.000   5.747   0.000
  0.000   0.000  -0.000   0.000   1.996  -0.000   0.000   5.749
  0.001   0.001   5.749   0.000  -0.000  16.475   0.000  -0.001
 -0.001  -0.002   0.000   5.747   0.000   0.000  16.471   0.000
  0.001   0.001  -0.000   0.000   5.749  -0.001   0.000  16.475
 total augmentation occupancy for first ion, spin component:           1
  4.376  -1.249  -0.003  -0.001  -0.003   0.000   0.000   0.000
 -1.249   0.376  -0.000   0.000  -0.000  -0.000   0.000  -0.000
 -0.003  -0.000   1.413   0.001   0.007  -0.101  -0.000  -0.000
 -0.001   0.000   0.001   1.507   0.001  -0.000  -0.102  -0.000
 -0.003  -0.000   0.007   0.001   1.413  -0.000  -0.000  -0.101
  0.000  -0.000  -0.101  -0.000  -0.000   0.008   0.000  -0.000
  0.000   0.000  -0.000  -0.102  -0.000   0.000   0.007   0.000
  0.000  -0.000  -0.000  -0.000  -0.101  -0.000   0.000   0.008
 total augmentation occupancy for first ion, spin component:           2
 -0.058   0.018  -0.017   0.073  -0.017   0.001  -0.002   0.001
  0.018  -0.006  -0.002   0.016  -0.002   0.000  -0.002   0.000
 -0.017  -0.002  -0.025  -0.022  -0.013   0.002   0.000   0.000
  0.073   0.016  -0.022  -0.035  -0.022   0.000   0.002   0.000
 -0.017  -0.002  -0.013  -0.022  -0.025   0.000   0.000   0.002
  0.001   0.000   0.002   0.000   0.000  -0.000   0.000   0.000
 -0.002  -0.002   0.000   0.002   0.000   0.000  -0.000   0.000
  0.001   0.000   0.000   0.000   0.002   0.000   0.000  -0.000


------------------------ aborting loop because EDIFF is reached ----------------------------------------


 


 total charge     
 
# of ion       s       p       d       tot
------------------------------------------
    1        0.405   0.428   0.000   0.834
    2        0.406   0.428   0.000   0.834
    3        0.405   0.428   0.000   0.833
    4        0.405   0.428   0.000   0.834
    5        0.405   0.427   0.000   0.832
    6        0.405   0.427   0.000   0.832
    7        0.405   0.428   0.000   0.834
    8        0.405   0.428   0.000   0.833
    9        0.406   0.428   0.000   0.834
   10        0.405   0.428   0.000   0.834
   11        0.405   0.427   0.000   0.832
   12        0.405   0.427   0.000   0.832
   13        0.405   0.427   0.000   0.832
   14        0.405   0.427   0.000   0.833
   15        0.405   0.427   0.000   0.833
   16        0.405   0.427   0.000   0.832
   17        0.405   0.427   0.000   0.833
   18        0.405   0.427   0.000   0.833
   19        0.335   0.352   5.141   5.828
   20        0.334   0.345   5.146   5.825
   21        0.335   0.358   5.092   5.784
   22        0.334   0.354   5.126   5.814
   23        0.335   0.358   5.092   5.784
   24        0.334   0.354   5.126   5.814
   25        0.334   0.353   5.155   5.842
   26        0.333   0.355   5.131   5.819
   27        0.333   0.353   5.139   5.826
   28        0.334   0.351   5.132   5.817
   29        0.333   0.353   5.130   5.815
   30        0.334   0.351   5.136   5.822
   31        0.334   0.353   5.155   5.842
   32        0.333   0.355   5.130   5.819
   33        0.333   0.353   5.130   5.815
   34        0.334   0.351   5.136   5.822
   35        0.333   0.353   5.139   5.826
   36        0.334   0.351   5.132   5.817
--------------------------------------------------
tot         13.305  14.050  92.368 119.723
 


 magnetization (x)
 
# of ion       s       p       d       tot
------------------------------------------
    1       -0.004  -0.010   0.000  -0.014
    2       -0.004  -0.008   0.000  -0.012
    3       -0.004  -0.009   0.000  -0.013
    4       -0.004  -0.009   0.000  -0.013
    5       -0.001  -0.001   0.000  -0.002
    6       -0.001  -0.001   0.000  -0.002
    7       -0.004  -0.009   0.000  -0.013
    8       -0.004  -0.009   0.000  -0.013
    9       -0.004  -0.008   0.000  -0.012
   10       -0.004  -0.010   0.000  -0.014
   11       -0.001  -0.001   0.000  -0.002
   12       -0.001  -0.001   0.000  -0.002
   13       -0.001  -0.000   0.000  -0.001
   14       -0.001  -0.000   0.000  -0.001
   15       -0.001  -0.000   0.000  -0.001
   16       -0.001  -0.000   0.000  -0.001
   17        0.001  -0.000   0.000   0.000
   18        0.001  -0.000   0.000   0.000
   19        0.029   0.025   2.089   2.144
   20        0.022   0.010   2.368   2.400
   21       -0.022  -0.027  -2.433  -2.481
   22        0.013   0.025   2.311   2.349
   23       -0.022  -0.027  -2.433  -2.481
   24        0.013   0.025   2.311   2.349
   25       -0.023  -0.026  -2.412  -2.460
   26        0.013   0.026   2.316   2.355
   27       -0.011  -0.014  -2.301  -2.325
   28        0.016   0.017   2.344   2.378
   29       -0.011  -0.013  -2.303  -2.328
   30        0.016   0.017   2.337   2.371
   31       -0.023  -0.026  -2.412  -2.460
   32        0.013   0.026   2.316   2.355
   33       -0.011  -0.013  -2.303  -2.328
   34        0.016   0.017   2.337   2.371
   35       -0.011  -0.014  -2.301  -2.325
   36        0.016   0.017   2.344   2.378
--------------------------------------------------
tot         -0.001  -0.032   4.174   4.141
 
    FORLOC:  cpu time    0.0287: real time    0.0287
    FORNL :  cpu time    6.9458: real time    7.1305
    STRESS:  cpu time   12.0316: real time   12.0517
    FORCOR:  cpu time    0.2683: real time    0.2683
    OFIELD:  cpu time    0.0014: real time    0.0014

  FORCE on cell =-STRESS in cart. coord.  units (eV):
  Direction    XX          YY          ZZ          XY          YZ          ZX
  --------------------------------------------------------------------------------------
  Alpha Z   532.25743   532.25743   532.25743
  Ewald   -2702.40749 -2702.40749 -3196.26924    -0.00000    -0.00000    -0.00000
  Hartree   724.13694   724.13694   218.25753    -0.00000    -0.00000    -0.00000
  E(xc)    -761.37023  -761.37023  -759.24117    -0.00000     0.00000    -0.00000
  Local     241.62428   241.62428  1277.62972    -0.00000    -0.00000    -0.00000
  n-local  -114.12089  -111.74569  -116.04550     0.57855    -0.15805    -0.76304
  augment   524.48928   524.48928   509.29496     0.00000     0.00001     0.00001
  Kinetic  1555.50730  1564.35425  1531.92623    -2.72070     1.62785     2.56511
  Fock        0.00000     0.00000     0.00000     0.00000     0.00000     0.00000
  -------------------------------------------------------------------------------------
  Total       5.72770     5.72770    -2.19004    -0.00000    -0.00000    -0.00000
  in kB      19.39000    19.39000    -7.41396    -0.00000    -0.00000    -0.00000
  external pressure =       10.46 kB  Pullay stress =        0.00 kB


 VOLUME and BASIS-vectors are now :
 -----------------------------------------------------------------------------
  energy-cutoff  :      404.80
  volume of cell :      473.27
      direct lattice vectors                 reciprocal lattice vectors
     8.250148166  0.000000000  0.000000000     0.121209944  0.000000000  0.000000000
     0.000000000  8.250148166  0.000000000     0.000000000  0.121209944  0.000000000
     0.000000000  0.000000000  6.953274261     0.000000000  0.000000000  0.143817137

  length of vectors
     8.250148166  8.250148166  6.953274261     0.121209944  0.121209944  0.143817137


 FORCES acting on ions:
    Electron-Ion                     Ewald-Force                    Non-Local-Force
 -----------------------------------------------------------------------------------------------
   -.705E-01 -.705E-01 -.299E-01   -.239E-08 -.239E-08 0.411E-08   0.734E-01 0.734E-01 -.421E-02
   -.705E-01 -.705E-01 0.299E-01   -.239E-08 -.239E-08 0.411E-08   0.734E-01 0.734E-01 0.421E-02
   -.705E-01 0.705E-01 -.299E-01   -.239E-08 -.802E-09 0.411E-08   0.734E-01 -.734E-01 -.421E-02
   -.705E-01 0.705E-01 0.299E-01   -.239E-08 -.802E-09 0.411E-08   0.734E-01 -.734E-01 0.421E-02
   0.705E-03 -.328E-08 -.903E-02   -.239E-08 0.631E-08 0.411E-08   0.420E-02 -.136E-18 0.324E-03
   0.705E-03 -.328E-08 0.903E-02   -.239E-08 0.631E-08 0.411E-08   0.420E-02 -.542E-19 -.324E-03
   0.705E-01 -.705E-01 -.299E-01   -.802E-09 -.239E-08 0.411E-08   -.734E-01 0.734E-01 -.421E-02
   0.705E-01 -.705E-01 0.299E-01   -.802E-09 -.239E-08 0.411E-08   -.734E-01 0.734E-01 0.421E-02
   0.705E-01 0.705E-01 -.299E-01   -.802E-09 -.802E-09 0.411E-08   -.734E-01 -.734E-01 -.421E-02
   0.705E-01 0.705E-01 0.299E-01   -.802E-09 -.802E-09 0.411E-08   -.734E-01 -.734E-01 0.421E-02
   -.705E-03 -.328E-08 -.903E-02   -.802E-09 0.631E-08 0.411E-08   -.420E-02 0.542E-19 0.324E-03
   -.705E-03 -.328E-08 0.903E-02   -.802E-09 0.631E-08 0.411E-08   -.420E-02 0.271E-19 -.324E-03
   -.328E-08 0.705E-03 -.903E-02   0.631E-08 -.239E-08 0.411E-08   0.542E-19 0.420E-02 0.324E-03
   -.328E-08 0.705E-03 0.903E-02   0.631E-08 -.239E-08 0.411E-08   0.217E-18 0.420E-02 -.324E-03
   -.328E-08 -.705E-03 -.903E-02   0.631E-08 -.802E-09 0.411E-08   -.542E-19 -.420E-02 0.324E-03
   -.328E-08 -.705E-03 0.903E-02   0.631E-08 -.802E-09 0.411E-08   -.542E-19 -.420E-02 -.324E-03
   -.329E-08 -.329E-08 0.298E-01   0.631E-08 0.631E-08 0.411E-08   -.108E-18 -.108E-18 0.304E-01
   -.329E-08 -.329E-08 -.298E-01   0.631E-08 0.631E-08 0.411E-08   0.163E-18 0.000E+00 -.304E-01
   0.470E-08 0.470E-08 -.210E-08   -.169E-07 -.169E-07 -.411E-08   -.331E-23 0.000E+00 0.000E+00
   0.477E-08 0.477E-08 -.224E-08   -.169E-07 -.169E-07 -.411E-08   0.265E-22 0.000E+00 0.000E+00
   0.493E-08 0.342E+00 -.241E-08   -.169E-07 0.802E-09 -.411E-08   0.434E-18 -.166E+00 -.108E-18
   0.490E-08 0.829E-01 -.240E-08   -.169E-07 0.802E-09 -.411E-08   -.217E-18 -.297E-01 -.434E-17
   0.493E-08 -.342E+00 -.241E-08   -.169E-07 0.130E-07 -.411E-08   -.434E-18 0.166E+00 -.325E-18
   0.490E-08 -.829E-01 -.240E-08   -.169E-07 0.130E-07 -.411E-08   0.000E+00 0.297E-01 0.173E-17
   0.342E+00 0.493E-08 -.241E-08   0.802E-09 -.169E-07 -.411E-08   -.166E+00 0.130E-17 0.108E-18
   0.829E-01 0.490E-08 -.240E-08   0.802E-09 -.169E-07 -.411E-08   -.297E-01 0.759E-18 -.434E-18
   -.106E+00 -.106E+00 -.239E-08   0.802E-09 0.802E-09 -.411E-08   0.131E+00 0.131E+00 0.217E-18
   -.567E-01 -.567E-01 -.238E-08   0.802E-09 0.802E-09 -.411E-08   0.471E-01 0.471E-01 0.217E-18
   -.106E+00 0.106E+00 -.239E-08   0.802E-09 0.130E-07 -.411E-08   0.131E+00 -.131E+00 -.217E-18
   -.567E-01 0.567E-01 -.238E-08   0.802E-09 0.130E-07 -.411E-08   0.471E-01 -.471E-01 -.434E-18
   -.342E+00 0.492E-08 -.239E-08   0.130E-07 -.169E-07 -.411E-08   0.166E+00 0.000E+00 0.000E+00
   -.829E-01 0.489E-08 -.240E-08   0.130E-07 -.169E-07 -.411E-08   0.297E-01 -.759E-18 -.304E-17
   0.106E+00 -.106E+00 -.238E-08   0.130E-07 0.802E-09 -.411E-08   -.131E+00 0.131E+00 0.651E-18
   0.567E-01 -.567E-01 -.238E-08   0.130E-07 0.802E-09 -.411E-08   -.471E-01 0.471E-01 0.623E-18
   0.106E+00 0.106E+00 -.238E-08   0.130E-07 0.130E-07 -.411E-08   -.131E+00 -.131E+00 -.217E-18
   0.567E-01 0.567E-01 -.238E-08   0.130E-07 0.130E-07 -.411E-08   -.471E-01 -.471E-01 -.217E-18
 -----------------------------------------------------------------------------------------------
   -.268E-07 -.269E-07 -.793E-07   -.197E-14 0.275E-13 0.265E-14   -.902E-16 0.625E-16 -.230E-17
 
 
 POSITION                                       TOTAL-FORCE (eV/Angst)
 -----------------------------------------------------------------------------------
      0.00000      0.00000      0.00000        -0.003504     -0.003504     -0.032519
      0.00000      0.00000      3.47664        -0.003504     -0.003504      0.032519
      0.00000      2.75005      0.00000        -0.003504      0.003504     -0.032519
      0.00000      2.75005      3.47664        -0.003504      0.003504      0.032519
      0.00000      5.50010      0.00000         0.005279     -0.000000     -0.008720
      0.00000      5.50010      3.47664         0.005279     -0.000000      0.008720
      2.75005      0.00000      0.00000         0.003504     -0.003504     -0.032519
      2.75005      0.00000      3.47664         0.003504     -0.003504      0.032519
      2.75005      2.75005      0.00000         0.003504      0.003504     -0.032519
      2.75005      2.75005      3.47664         0.003504      0.003504      0.032519
      2.75005      5.50010      0.00000        -0.005279     -0.000000     -0.008720
      2.75005      5.50010      3.47664        -0.005279     -0.000000      0.008720
      5.50010      0.00000      0.00000         0.000000      0.005279     -0.008720
      5.50010      0.00000      3.47664         0.000000      0.005279      0.008720
      5.50010      2.75005      0.00000         0.000000     -0.005279     -0.008720
      5.50010      2.75005      3.47664         0.000000     -0.005279      0.008720
      5.50010      5.50010      0.00000         0.000000     -0.000000      0.057994
      5.50010      5.50010      3.47664         0.000000     -0.000000     -0.057994
      1.37502      1.37502      1.73832         0.000000     -0.000000     -0.000000
      1.37502      1.37502      5.21496         0.000000     -0.000000     -0.000000
      1.37502      4.12507      1.73832         0.000000      0.179733     -0.000000
      1.37502      4.12507      5.21496         0.000000      0.052751     -0.000000
      1.37502      6.87512      1.73832         0.000000     -0.179733     -0.000000
      1.37502      6.87512      5.21496         0.000000     -0.052751     -0.000000
      4.12507      1.37502      1.73832         0.179733     -0.000000     -0.000000
      4.12507      1.37502      5.21496         0.052751     -0.000000     -0.000000
      4.12507      4.12507      1.73832         0.022334      0.022334     -0.000000
      4.12507      4.12507      5.21496        -0.010033     -0.010033     -0.000000
      4.12507      6.87512      1.73832         0.022334     -0.022334     -0.000000
      4.12507      6.87512      5.21496        -0.010033      0.010033     -0.000000
      6.87512      1.37502      1.73832        -0.179733     -0.000000     -0.000000
      6.87512      1.37502      5.21496        -0.052751     -0.000000     -0.000000
      6.87512      4.12507      1.73832        -0.022334      0.022334     -0.000000
      6.87512      4.12507      5.21496         0.010033     -0.010033     -0.000000
      6.87512      6.87512      1.73832        -0.022334     -0.022334     -0.000000
      6.87512      6.87512      5.21496         0.010033      0.010033     -0.000000
 -----------------------------------------------------------------------------------
    total drift:                               -0.000000     -0.000000     -0.000000


--------------------------------------------------------------------------------------------------------



  FREE ENERGIE OF THE ION-ELECTRON SYSTEM (eV)
  ---------------------------------------------------
  free  energy   TOTEN  =      -237.85866390 eV

  energy  without entropy=     -237.88257170  energy(sigma->0) =     -237.86663317
 


--------------------------------------------------------------------------------------------------------


    POTLOK:  cpu time    0.6636: real time    0.6877


--------------------------------------------------------------------------------------------------------


     LOOP+:  cpu time  605.8099: real time  622.1897
    4ORBIT:  cpu time    0.0000: real time    0.0000
 


 total charge     
 
# of ion       s       p       d       tot
------------------------------------------
    1        0.405   0.428   0.000   0.834
    2        0.406   0.428   0.000   0.834
    3        0.405   0.428   0.000   0.833
    4        0.405   0.428   0.000   0.834
    5        0.405   0.427   0.000   0.832
    6        0.405   0.427   0.000   0.832
    7        0.405   0.428   0.000   0.834
    8        0.405   0.428   0.000   0.833
    9        0.406   0.428   0.000   0.834
   10        0.405   0.428   0.000   0.834
   11        0.405   0.427   0.000   0.832
   12        0.405   0.427   0.000   0.832
   13        0.405   0.427   0.000   0.832
   14        0.405   0.427   0.000   0.833
   15        0.405   0.427   0.000   0.833
   16        0.405   0.427   0.000   0.832
   17        0.405   0.427   0.000   0.833
   18        0.405   0.427   0.000   0.833
   19        0.335   0.352   5.141   5.828
   20        0.334   0.345   5.146   5.825
   21        0.335   0.358   5.092   5.784
   22        0.334   0.354   5.126   5.814
   23        0.335   0.358   5.092   5.784
   24        0.334   0.354   5.126   5.814
   25        0.334   0.353   5.155   5.842
   26        0.333   0.355   5.131   5.819
   27        0.333   0.353   5.139   5.826
   28        0.334   0.351   5.132   5.817
   29        0.333   0.353   5.130   5.815
   30        0.334   0.351   5.136   5.822
   31        0.334   0.353   5.155   5.842
   32        0.333   0.355   5.130   5.819
   33        0.333   0.353   5.130   5.815
   34        0.334   0.351   5.136   5.822
   35        0.333   0.353   5.139   5.826
   36        0.334   0.351   5.132   5.817
--------------------------------------------------
tot         13.305  14.050  92.368 119.723
 


 magnetization (x)
 
# of ion       s       p       d       tot
------------------------------------------
    1       -0.004  -0.010   0.000  -0.014
    2       -0.004  -0.008   0.000  -0.012
    3       -0.004  -0.009   0.000  -0.013
    4       -0.004  -0.009   0.000  -0.013
    5       -0.001  -0.001   0.000  -0.002
    6       -0.001  -0.001   0.000  -0.002
    7       -0.004  -0.009   0.000  -0.013
    8       -0.004  -0.009   0.000  -0.013
    9       -0.004  -0.008   0.000  -0.012
   10       -0.004  -0.010   0.000  -0.014
   11       -0.001  -0.001   0.000  -0.002
   12       -0.001  -0.001   0.000  -0.002
   13       -0.001  -0.000   0.000  -0.001
   14       -0.001  -0.000   0.000  -0.001
   15       -0.001  -0.000   0.000  -0.001
   16       -0.001  -0.000   0.000  -0.001
   17        0.001  -0.000   0.000   0.000
   18        0.001  -0.000   0.000   0.000
   19        0.029   0.025   2.089   2.144
   20        0.022   0.010   2.368   2.400
   21       -0.022  -0.027  -2.433  -2.481
   22        0.013   0.025   2.311   2.349
   23       -0.022  -0.027  -2.433  -2.481
   24        0.013   0.025   2.311   2.349
   25       -0.023  -0.026  -2.412  -2.460
   26        0.013   0.026   2.316   2.355
   27       -0.011  -0.014  -2.301  -2.325
   28        0.016   0.017   2.344   2.378
   29       -0.011  -0.013  -2.303  -2.328
   30        0.016   0.017   2.337   2.371
   31       -0.023  -0.026  -2.412  -2.460
   32        0.013   0.026   2.316   2.355
   33       -0.011  -0.013  -2.303  -2.328
   34        0.016   0.017   2.337   2.371
   35       -0.011  -0.014  -2.301  -2.325
   36        0.016   0.017   2.344   2.378
--------------------------------------------------
tot         -0.001  -0.032   4.174   4.141
 

 total amount of memory used by VASP MPI-rank0   383621. kBytes
=======================================================================

   base      :      30000. kBytes
   nonl-proj :      16518. kBytes
   fftplans  :      21726. kBytes
   grid      :      14732. kBytes
   one-center:        279. kBytes
   wavefun   :     300366. kBytes
 
  
  
 General timing and accounting informations for this job:
 ========================================================
  
                  Total CPU time used (sec):      619.424
                            User time (sec):      605.049
                          System time (sec):       14.375
                         Elapsed time (sec):      637.839
  
                   Maximum memory used (kb):      505168.
                   Average memory used (kb):           0.
  
                          Minor page faults:       356661
                          Major page faults:           18
                 Voluntary context switches:         3581
