   36   36    1    2
  0.1314651E+02  0.8250148E-09  0.8250148E-09  0.6953274E-09  0.2000000E-15
  1.000000000000000E-004
  CAR 
 AlMn_pv                                 
    180     24    112
 
  0.0000000E+00  0.0000000E+00  0.0000000E+00  0.6666667E-02
    1       -2.527872     -2.518861   1.000000   1.000000
    2       -0.349711     -0.346782   1.000000   1.000000
    3       -0.349091     -0.341242   1.000000   1.000000
    4       -0.341270     -0.341242   1.000000   1.000000
    5       -0.341270     -0.314167   1.000000   1.000000
    6       -0.128982     -0.138710   1.000000   1.000000
    7        1.366037      1.376004   1.000000   1.000000
    8        1.366037      1.378863   1.000000   1.000000
    9        1.377122      1.395450   1.000000   1.000000
   10        1.381157      1.395450   1.000000   1.000000
   11        1.400671      1.426415   1.000000   1.000000
   12        1.564801      1.575316   1.000000   1.000000
   13        1.577390      1.575316   1.000000   1.000000
   14        1.584691      1.621672   1.000000   1.000000
   15        1.584691      1.621734   1.000000   1.000000
   16        2.737139      2.755893   1.000000   1.000000
   17        2.737139      2.767211   1.000000   1.000000
   18        2.763458      2.802733   1.000000   1.000000
   19        2.773324      2.802733   1.000000   1.000000
   20        3.493331      3.566651   1.000000   1.000000
   21        3.539426      3.566651   1.000000   1.000000
   22        3.550603      3.569216   1.000000   1.000000
   23        3.550603      3.618242   1.000000   1.000000
   24        4.117833      4.189615   1.000000   1.000000
   25        4.193936      4.189615   1.000000   1.000000
   26        4.199474      4.249896   1.000000   1.000000
   27        4.199474      4.451365   1.000000   1.000000
   28        4.559616      4.623870   1.000000   1.000000
   29        4.584789      4.623870   1.000000   1.000000
   30        4.622343      4.652748   1.000000   1.000000
   31        4.622343      4.662864   1.000000   1.000000
   32        4.736013      4.717239   1.000000   1.000000
   33        4.736013      4.756829   1.000000   1.000000
   34        4.767841      4.875951   1.000000   1.000000
   35        4.769018      4.885924   1.000000   1.000000
   36        4.779119      4.885924   1.000000   1.000000
   37        4.780846      5.146271   1.000000   1.000000
   38        5.093893      5.158129   1.000000   1.000000
   39        5.162883      5.193309   1.000000   1.000000
   40        5.175000      5.227278   1.000000   1.000000
   41        5.187437      5.227278   1.000000   1.000000
   42        5.187437      5.277723   1.000000   1.000000
   43        5.190413      5.315264   1.000000   1.000000
   44        5.228723      5.315264   1.000000   1.000000
   45        5.228723      5.316398   1.000000   1.000000
   46        5.420053      5.474898   1.000000   1.000000
   47        5.427141      5.474898   1.000000   1.000000
   48        5.464693      5.544107   1.000000   1.000000
   49        5.464693      5.752009   1.000000   1.000000
   50        5.694052      6.054598   1.000000   1.000000
   51        5.694052      6.073170   1.000000   1.000000
   52        5.696365      6.108654   1.000000   1.000000
   53        6.082020      6.108654   1.000000   1.000000
   54        6.083848      6.164910   1.000000   1.000000
   55        6.133139      6.164910   1.000000   1.000000
   56        6.133139      6.165682   1.000000   1.000000
   57        6.139168      6.311308   1.000000   1.000000
   58        6.172975      6.315647   1.000000   1.000000
   59        6.177162      6.327727   1.000000   1.000000
   60        6.177162      6.329949   1.000000   1.000000
   61        6.326059      6.329949   1.000000   1.000000
   62        6.330955      6.365478   1.000000   1.000000
   63        6.414309      6.428379   1.000000   1.000000
   64        6.417746      6.428379   1.000000   1.000000
   65        6.430935      6.437598   1.000000   1.000000
   66        6.435519      6.480175   1.000000   1.000000
   67        6.435519      6.481158   1.000000   1.000000
   68        6.445160      6.481158   1.000000   1.000000
   69        6.463359      6.520045   1.000000   1.000000
   70        6.491381      6.525114   1.000000   1.000000
   71        6.491381      6.525114   1.000000   1.000000
   72        6.516083      6.572114   1.000000   1.000000
   73        6.516083      6.572114   1.000000   1.000000
   74        6.519049      6.663276   1.000000   1.000000
   75        6.519049      6.676408   1.000000   1.000000
   76        6.553120      6.700746   1.000000   1.000000
   77        6.679217      6.914397   1.000000   1.000000
   78        6.681437      6.914397   1.000000   1.000000
   79        6.685190      6.938566   1.000000   1.000000
   80        6.685190      6.942353   1.000000   1.000000
   81        6.757628      7.002227   1.000000   1.000002
   82        6.757628      7.148910   1.000000   1.000170
   83        6.880348      7.557185   1.000000   1.001497
   84        6.955353      7.557185   1.000000   1.001497
   85        6.965428      7.609781   1.000001   0.913335
   86        7.129500      7.676266   1.000100   0.708126
   87        7.143748      7.676266   1.000148   0.708126
   88        7.377814      7.807904   1.016587   0.186294
   89        7.579233      7.822293   0.972602   0.143214
   90        7.579233      7.959738   0.972602  -0.034831
   91        7.586738      7.963003   0.960116  -0.035141
   92        7.828762      7.963003   0.124692  -0.035141
   93        7.943922      8.058760  -0.031830  -0.020380
   94        7.974982      8.161833  -0.035420  -0.004368
   95        7.974983      8.215372  -0.035420  -0.001493
   96        8.131879      8.215374  -0.007396  -0.001493
   97        8.131881      8.566587  -0.007395  -0.000000
   98        8.156565      8.598358  -0.004811  -0.000000
   99        8.216150      8.617558  -0.001469  -0.000000
  100        8.216155      8.638416  -0.001469  -0.000000
  101        8.396014      8.638558  -0.000012  -0.000000
  102        8.408293      8.670299  -0.000008  -0.000000
  103        8.613598      8.724992  -0.000000  -0.000000
  104        8.621689      8.725057  -0.000000  -0.000000
  105        8.653861      8.729146  -0.000000  -0.000000
  106        8.654911      8.729172  -0.000000  -0.000000
  107        8.662313      8.857582  -0.000000  -0.000000
  108        8.662422      8.889359  -0.000000  -0.000000
  109        8.759683      8.941086  -0.000000  -0.000000
  110        8.832883      9.006668  -0.000000  -0.000000
  111        8.842651      9.104125  -0.000000  -0.000000
  112        9.045091      9.117060  -0.000000  -0.000000
 
  0.2000000E+00  0.0000000E+00  0.0000000E+00  0.2666667E-01
    1       -2.437311     -2.428326   1.000000   1.000000
    2       -1.111196     -1.102369   1.000000   1.000000
    3       -0.266433     -0.258208   1.000000   1.000000
    4       -0.258675     -0.247680   1.000000   1.000000
    5       -0.063323     -0.072530   1.000000   1.000000
    6        0.557959      0.568385   1.000000   1.000000
    7        0.872490      0.873356   1.000000   1.000000
    8        0.923168      0.935239   1.000000   1.000000
    9        0.923746      0.941567   1.000000   1.000000
   10        1.428450      1.440368   1.000000   1.000000
   11        1.451124      1.458248   1.000000   1.000000
   12        1.476912      1.521936   1.000000   1.000000
   13        1.903047      1.925028   1.000000   1.000000
   14        2.287132      2.320257   1.000000   1.000000
   15        2.299064      2.320585   1.000000   1.000000
   16        2.304562      2.332892   1.000000   1.000000
   17        2.312824      2.336075   1.000000   1.000000
   18        2.817920      2.862188   1.000000   1.000000
   19        3.201212      3.242349   1.000000   1.000000
   20        3.211767      3.253025   1.000000   1.000000
   21        3.586189      3.636259   1.000000   1.000000
   22        3.615883      3.660581   1.000000   1.000000
   23        3.724280      3.752158   1.000000   1.000000
   24        4.092275      4.159297   1.000000   1.000000
   25        4.154672      4.161820   1.000000   1.000000
   26        4.161327      4.214229   1.000000   1.000000
   27        4.166209      4.346923   1.000000   1.000000
   28        4.293334      4.377596   1.000000   1.000000
   29        4.524764      4.569152   1.000000   1.000000
   30        4.539904      4.599305   1.000000   1.000000
   31        4.608575      4.664531   1.000000   1.000000
   32        4.635838      4.692774   1.000000   1.000000
   33        4.694731      4.830263   1.000000   1.000000
   34        4.807923      4.898787   1.000000   1.000000
   35        4.830385      5.012078   1.000000   1.000000
   36        4.937082      5.031858   1.000000   1.000000
   37        4.950866      5.040091   1.000000   1.000000
   38        5.000082      5.041186   1.000000   1.000000
   39        5.062508      5.100361   1.000000   1.000000
   40        5.096146      5.156367   1.000000   1.000000
   41        5.098257      5.182750   1.000000   1.000000
   42        5.120756      5.185682   1.000000   1.000000
   43        5.177577      5.210023   1.000000   1.000000
   44        5.187716      5.325165   1.000000   1.000000
   45        5.305193      5.401244   1.000000   1.000000
   46        5.457579      5.513335   1.000000   1.000000
   47        5.502969      5.568236   1.000000   1.000000
   48        5.516095      5.607764   1.000000   1.000000
   49        5.558395      5.714143   1.000000   1.000000
   50        5.593826      5.863655   1.000000   1.000000
   51        5.672640      5.997064   1.000000   1.000000
   52        5.706565      6.033312   1.000000   1.000000
   53        5.973749      6.051278   1.000000   1.000000
   54        5.997720      6.148084   1.000000   1.000000
   55        6.002529      6.175898   1.000000   1.000000
   56        6.066255      6.186627   1.000000   1.000000
   57        6.080836      6.255192   1.000000   1.000000
   58        6.178148      6.267014   1.000000   1.000000
   59        6.231114      6.283406   1.000000   1.000000
   60        6.245934      6.293188   1.000000   1.000000
   61        6.271528      6.332037   1.000000   1.000000
   62        6.302294      6.360518   1.000000   1.000000
   63        6.345337      6.384688   1.000000   1.000000
   64        6.361600      6.425088   1.000000   1.000000
   65        6.369673      6.461821   1.000000   1.000000
   66        6.385886      6.490808   1.000000   1.000000
   67        6.417622      6.515953   1.000000   1.000000
   68        6.422030      6.555383   1.000000   1.000000
   69        6.480709      6.555763   1.000000   1.000000
   70        6.514594      6.570642   1.000000   1.000000
   71        6.525610      6.588056   1.000000   1.000000
   72        6.551402      6.655247   1.000000   1.000000
   73        6.571110      6.674076   1.000000   1.000000
   74        6.593700      6.695131   1.000000   1.000000
   75        6.594268      6.770471   1.000000   1.000000
   76        6.608330      6.784722   1.000000   1.000000
   77        6.645349      6.794324   1.000000   1.000000
   78        6.673108      6.878451   1.000000   1.000000
   79        6.721363      6.979515   1.000000   1.000001
   80        6.784369      7.007171   1.000000   1.000002
   81        6.786735      7.056978   1.000000   1.000012
   82        6.836323      7.075263   1.000000   1.000020
   83        6.880736      7.267121   1.000000   1.002712
   84        7.007398      7.404878   1.000002   1.022568
   85        7.040153      7.660648   1.000007   0.763962
   86        7.094254      7.667262   1.000036   0.741595
   87        7.125004      7.720976   1.000088   0.526491
   88        7.159823      7.820502   1.000227   0.148131
   89        7.364580      7.833113   1.013973   0.113317
   90        7.604201      7.952743   0.926075  -0.033869
   91        7.663030      7.971312   0.755622  -0.035457
   92        7.844454      8.036319   0.085432  -0.025531
   93        7.934569      8.042562  -0.028645  -0.024086
   94        7.947371      8.131984  -0.032705  -0.007357
   95        7.973281      8.330575  -0.035450  -0.000084
   96        8.005284      8.414721  -0.032056  -0.000007
   97        8.126665      8.438698  -0.008026  -0.000003
   98        8.161463      8.467970  -0.004414  -0.000001
   99        8.284123      8.487071  -0.000294  -0.000001
  100        8.354293      8.594101  -0.000043  -0.000000
  101        8.377211      8.604023  -0.000021  -0.000000
  102        8.480888      8.655898  -0.000001  -0.000000
  103        8.573956      8.737665  -0.000000  -0.000000
  104        8.583975      8.841612  -0.000000  -0.000000
  105        8.649415      8.842170  -0.000000  -0.000000
  106        8.669763      8.858819  -0.000000  -0.000000
  107        8.759590      8.906085  -0.000000  -0.000000
  108        8.800586      8.920524  -0.000000  -0.000000
  109        8.830709      8.931223  -0.000000  -0.000000
  110        8.862247      8.960276  -0.000000  -0.000000
  111        8.862878      9.041994  -0.000000  -0.000000
  112        8.942132      9.059715  -0.000000  -0.000000
 
  0.4000000E+00  0.0000000E+00  0.0000000E+00  0.2666667E-01
    1       -2.167275     -2.158311   1.000000   1.000000
    2       -1.722365     -1.713628   1.000000   1.000000
    3       -0.020214     -0.011800   1.000000   1.000000
    4       -0.013615     -0.002146   1.000000   1.000000
    5        0.131371      0.123816   1.000000   1.000000
    6        0.381392      0.391321   1.000000   1.000000
    7        0.385667      0.399645   1.000000   1.000000
    8        0.448236      0.443850   1.000000   1.000000
    9        1.568527      1.584359   1.000000   1.000000
   10        1.612108      1.626017   1.000000   1.000000
   11        1.633925      1.643191   1.000000   1.000000
   12        1.757459      1.802489   1.000000   1.000000
   13        1.910432      1.925484   1.000000   1.000000
   14        1.927782      1.942316   1.000000   1.000000
   15        2.213973      2.257311   1.000000   1.000000
   16        2.301983      2.340204   1.000000   1.000000
   17        2.670308      2.685215   1.000000   1.000000
   18        2.910390      2.955145   1.000000   1.000000
   19        2.948503      3.013266   1.000000   1.000000
   20        3.545156      3.595681   1.000000   1.000000
   21        3.582728      3.641089   1.000000   1.000000
   22        3.771099      3.822641   1.000000   1.000000
   23        3.786052      3.835925   1.000000   1.000000
   24        3.983006      4.045335   1.000000   1.000000
   25        4.004159      4.051175   1.000000   1.000000
   26        4.047967      4.112701   1.000000   1.000000
   27        4.073607      4.135086   1.000000   1.000000
   28        4.302780      4.347152   1.000000   1.000000
   29        4.343464      4.406125   1.000000   1.000000
   30        4.401091      4.514420   1.000000   1.000000
   31        4.515026      4.678233   1.000000   1.000000
   32        4.658101      4.706849   1.000000   1.000000
   33        4.696173      4.774511   1.000000   1.000000
   34        4.755063      4.777162   1.000000   1.000000
   35        4.864760      4.913507   1.000000   1.000000
   36        4.896279      4.961737   1.000000   1.000000
   37        4.912248      4.966665   1.000000   1.000000
   38        4.938317      5.051121   1.000000   1.000000
   39        5.067533      5.090677   1.000000   1.000000
   40        5.083210      5.116529   1.000000   1.000000
   41        5.097256      5.204953   1.000000   1.000000
   42        5.152243      5.210326   1.000000   1.000000
   43        5.171533      5.217268   1.000000   1.000000
   44        5.181387      5.345986   1.000000   1.000000
   45        5.241111      5.358979   1.000000   1.000000
   46        5.458607      5.623013   1.000000   1.000000
   47        5.553881      5.630073   1.000000   1.000000
   48        5.608384      5.652799   1.000000   1.000000
   49        5.637932      5.707011   1.000000   1.000000
   50        5.640642      5.811291   1.000000   1.000000
   51        5.698706      5.869235   1.000000   1.000000
   52        5.770579      6.005212   1.000000   1.000000
   53        5.803608      6.034951   1.000000   1.000000
   54        5.849904      6.063363   1.000000   1.000000
   55        5.962999      6.145494   1.000000   1.000000
   56        6.035217      6.146132   1.000000   1.000000
   57        6.056804      6.163540   1.000000   1.000000
   58        6.118040      6.214739   1.000000   1.000000
   59        6.174082      6.215345   1.000000   1.000000
   60        6.174881      6.286397   1.000000   1.000000
   61        6.208265      6.295806   1.000000   1.000000
   62        6.231382      6.302535   1.000000   1.000000
   63        6.239326      6.372751   1.000000   1.000000
   64        6.316414      6.401487   1.000000   1.000000
   65        6.316491      6.514866   1.000000   1.000000
   66        6.332497      6.558559   1.000000   1.000000
   67        6.360532      6.568902   1.000000   1.000000
   68        6.411885      6.572015   1.000000   1.000000
   69        6.430205      6.594918   1.000000   1.000000
   70        6.469011      6.604819   1.000000   1.000000
   71        6.542426      6.606729   1.000000   1.000000
   72        6.558729      6.690760   1.000000   1.000000
   73        6.600062      6.723553   1.000000   1.000000
   74        6.667146      6.728161   1.000000   1.000000
   75        6.670890      6.752887   1.000000   1.000000
   76        6.725183      6.753441   1.000000   1.000000
   77        6.739618      6.864293   1.000000   1.000000
   78        6.749747      6.919875   1.000000   1.000000
   79        6.797171      6.953873   1.000000   1.000000
   80        6.859504      6.970418   1.000000   1.000001
   81        6.873677      7.011975   1.000000   1.000003
   82        6.924379      7.090376   1.000000   1.000032
   83        6.931362      7.305867   1.000000   1.005589
   84        6.944632      7.417238   1.000000   1.025448
   85        6.971360      7.657225   1.000001   0.777129
   86        6.999708      7.663144   1.000002   0.755134
   87        7.030190      7.805410   1.000005   0.195691
   88        7.227472      7.830236   1.001170   0.121107
   89        7.378532      7.864955   1.016721   0.043491
   90        7.614412      7.897020   0.902574  -0.001817
   91        7.657077      7.921022   0.776473  -0.021828
   92        7.707764      8.012145   0.580967  -0.030780
   93        7.879178      8.061158   0.020434  -0.019836
   94        7.915947      8.098259  -0.018478  -0.012346
   95        7.973209      8.113751  -0.035451  -0.009824
   96        8.090087      8.390504  -0.013822  -0.000014
   97        8.130088      8.455427  -0.007592  -0.000002
   98        8.135651      8.456935  -0.006939  -0.000002
   99        8.218697      8.461713  -0.001386  -0.000001
  100        8.238553      8.580559  -0.000894  -0.000000
  101        8.310609      8.633705  -0.000146  -0.000000
  102        8.453277      8.640205  -0.000002  -0.000000
  103        8.477063      8.684684  -0.000001  -0.000000
  104        8.539264      8.689260  -0.000000  -0.000000
  105        8.621714      8.769808  -0.000000  -0.000000
  106        8.648887      8.832439  -0.000000  -0.000000
  107        8.734780      8.862601  -0.000000  -0.000000
  108        8.794730      8.887118  -0.000000  -0.000000
  109        8.851588      8.901181  -0.000000  -0.000000
  110        8.859748      9.051131  -0.000000  -0.000000
  111        8.972044      9.068195  -0.000000  -0.000000
  112        9.052061      9.112224  -0.000000  -0.000000
 
  0.2000000E+00  0.2000000E+00  0.0000000E+00  0.2666667E-01
    1       -2.347020     -2.338056   1.000000   1.000000
    2       -1.025634     -1.024891   1.000000   1.000000
    3       -1.025191     -1.007883   1.000000   1.000000
    4        0.002217     -0.006464   1.000000   1.000000
    5        0.218467      0.229259   1.000000   1.000000
    6        0.636399      0.639972   1.000000   1.000000
    7        0.637177      0.656939   1.000000   1.000000
    8        0.927239      0.935407   1.000000   1.000000
    9        0.945228      0.939633   1.000000   1.000000
   10        1.570798      1.615888   1.000000   1.000000
   11        1.728287      1.732858   1.000000   1.000000
   12        1.741257      1.777883   1.000000   1.000000
   13        1.829703      1.842198   1.000000   1.000000
   14        1.963364      1.981954   1.000000   1.000000
   15        1.967884      1.994091   1.000000   1.000000
   16        2.783662      2.812246   1.000000   1.000000
   17        2.809660      2.847998   1.000000   1.000000
   18        2.826235      2.879554   1.000000   1.000000
   19        2.882702      2.925334   1.000000   1.000000
   20        2.913882      2.960939   1.000000   1.000000
   21        3.601181      3.651391   1.000000   1.000000
   22        3.773055      3.795829   1.000000   1.000000
   23        3.777124      3.814726   1.000000   1.000000
   24        3.838571      3.899828   1.000000   1.000000
   25        4.165504      4.164922   1.000000   1.000000
   26        4.170707      4.243858   1.000000   1.000000
   27        4.171141      4.342137   1.000000   1.000000
   28        4.339865      4.386937   1.000000   1.000000
   29        4.345774      4.419471   1.000000   1.000000
   30        4.401032      4.461498   1.000000   1.000000
   31        4.552782      4.635472   1.000000   1.000000
   32        4.637700      4.760734   1.000000   1.000000
   33        4.659925      4.789475   1.000000   1.000000
   34        4.772069      4.820535   1.000000   1.000000
   35        4.816261      4.848108   1.000000   1.000000
   36        4.833818      4.866221   1.000000   1.000000
   37        4.838512      4.941105   1.000000   1.000000
   38        4.994929      5.111439   1.000000   1.000000
   39        5.088110      5.118636   1.000000   1.000000
   40        5.091900      5.189682   1.000000   1.000000
   41        5.147045      5.200529   1.000000   1.000000
   42        5.206739      5.305653   1.000000   1.000000
   43        5.258212      5.338891   1.000000   1.000000
   44        5.347957      5.444380   1.000000   1.000000
   45        5.348915      5.463276   1.000000   1.000000
   46        5.506673      5.550801   1.000000   1.000000
   47        5.518706      5.593890   1.000000   1.000000
   48        5.577358      5.632155   1.000000   1.000000
   49        5.582016      5.731191   1.000000   1.000000
   50        5.595860      5.858761   1.000000   1.000000
   51        5.597695      5.883553   1.000000   1.000000
   52        5.678583      5.926725   1.000000   1.000000
   53        5.874879      6.018091   1.000000   1.000000
   54        5.957623      6.067372   1.000000   1.000000
   55        5.973776      6.099003   1.000000   1.000000
   56        6.027275      6.161657   1.000000   1.000000
   57        6.055582      6.175163   1.000000   1.000000
   58        6.100603      6.212571   1.000000   1.000000
   59        6.185621      6.290949   1.000000   1.000000
   60        6.190607      6.343641   1.000000   1.000000
   61        6.258640      6.354970   1.000000   1.000000
   62        6.281467      6.370314   1.000000   1.000000
   63        6.333590      6.448906   1.000000   1.000000
   64        6.368084      6.455123   1.000000   1.000000
   65        6.397273      6.485272   1.000000   1.000000
   66        6.424042      6.521810   1.000000   1.000000
   67        6.434945      6.569072   1.000000   1.000000
   68        6.437433      6.573635   1.000000   1.000000
   69        6.519358      6.575492   1.000000   1.000000
   70        6.535062      6.594635   1.000000   1.000000
   71        6.537458      6.604440   1.000000   1.000000
   72        6.550918      6.606139   1.000000   1.000000
   73        6.555966      6.636443   1.000000   1.000000
   74        6.572288      6.689010   1.000000   1.000000
   75        6.603351      6.704350   1.000000   1.000000
   76        6.609912      6.831541   1.000000   1.000000
   77        6.667498      6.834608   1.000000   1.000000
   78        6.671696      6.950317   1.000000   1.000000
   79        6.744081      6.965794   1.000000   1.000001
   80        6.754567      7.012296   1.000000   1.000003
   81        6.859726      7.018498   1.000000   1.000003
   82        6.871630      7.191407   1.000000   1.000505
   83        6.941479      7.274864   1.000000   1.003156
   84        7.000888      7.355121   1.000002   1.012253
   85        7.048303      7.358857   1.000009   1.012915
   86        7.072795      7.669321   1.000019   0.734045
   87        7.085618      7.746711   1.000028   0.417943
   88        7.210795      7.842726   1.000802   0.089465
   89        7.235431      7.942787   1.001397  -0.031530
   90        7.391156      7.956931   1.019454  -0.034513
   91        7.861271      7.983337   0.050245  -0.034984
   92        7.887489      8.022684   0.009440  -0.028587
   93        7.928508      8.184854  -0.025916  -0.002817
   94        7.985958      8.216708  -0.034762  -0.001451
   95        7.988811      8.259802  -0.034469  -0.000539
   96        7.999005      8.310459  -0.033114  -0.000147
   97        8.117610      8.405255  -0.009290  -0.000009
   98        8.140474      8.416029  -0.006379  -0.000006
   99        8.252589      8.573649  -0.000641  -0.000000
  100        8.295089      8.603524  -0.000221  -0.000000
  101        8.379412      8.638338  -0.000020  -0.000000
  102        8.524880      8.645829  -0.000000  -0.000000
  103        8.534538      8.697469  -0.000000  -0.000000
  104        8.607239      8.698356  -0.000000  -0.000000
  105        8.624243      8.767107  -0.000000  -0.000000
  106        8.631446      8.773656  -0.000000  -0.000000
  107        8.673860      8.855667  -0.000000  -0.000000
  108        8.709467      8.907749  -0.000000  -0.000000
  109        8.734973      8.919511  -0.000000  -0.000000
  110        8.870353      8.936195  -0.000000  -0.000000
  111        8.894244      9.230764  -0.000000  -0.000000
  112        9.128157      9.353741  -0.000000  -0.000000
 
  0.4000000E+00  0.2000000E+00  0.0000000E+00  0.5333333E-01
    1       -2.077831     -2.068877   1.000000   1.000000
    2       -1.634398     -1.625662   1.000000   1.000000
    3       -0.770216     -0.760780   1.000000   1.000000
    4       -0.351764     -0.341906   1.000000   1.000000
    5        0.196565      0.189556   1.000000   1.000000
    6        0.512724      0.508950   1.000000   1.000000
    7        0.869394      0.881799   1.000000   1.000000
    8        1.124459      1.127431   1.000000   1.000000
    9        1.243510      1.257928   1.000000   1.000000
   10        1.428190      1.434705   1.000000   1.000000
   11        1.643496      1.659586   1.000000   1.000000
   12        1.849503      1.894544   1.000000   1.000000
   13        2.143982      2.168353   1.000000   1.000000
   14        2.301403      2.344836   1.000000   1.000000
   15        2.362158      2.400608   1.000000   1.000000
   16        2.430327      2.458606   1.000000   1.000000
   17        2.580338      2.611655   1.000000   1.000000
   18        2.730698      2.748931   1.000000   1.000000
   19        3.125470      3.168690   1.000000   1.000000
   20        3.146991      3.225278   1.000000   1.000000
   21        3.180262      3.228859   1.000000   1.000000
   22        3.465983      3.519880   1.000000   1.000000
   23        3.593192      3.635687   1.000000   1.000000
   24        3.903493      3.954417   1.000000   1.000000
   25        3.915915      3.963138   1.000000   1.000000
   26        4.088422      4.140458   1.000000   1.000000
   27        4.259605      4.317867   1.000000   1.000000
   28        4.290103      4.433905   1.000000   1.000000
   29        4.392687      4.496203   1.000000   1.000000
   30        4.459156      4.514954   1.000000   1.000000
   31        4.509379      4.525400   1.000000   1.000000
   32        4.556436      4.616060   1.000000   1.000000
   33        4.633984      4.747112   1.000000   1.000000
   34        4.739693      4.797273   1.000000   1.000000
   35        4.800588      4.835769   1.000000   1.000000
   36        4.820003      4.913336   1.000000   1.000000
   37        4.933447      5.017442   1.000000   1.000000
   38        4.973980      5.038490   1.000000   1.000000
   39        5.099733      5.136267   1.000000   1.000000
   40        5.160423      5.237539   1.000000   1.000000
   41        5.212875      5.253472   1.000000   1.000000
   42        5.241994      5.309908   1.000000   1.000000
   43        5.281332      5.437991   1.000000   1.000000
   44        5.376102      5.481763   1.000000   1.000000
   45        5.462188      5.539357   1.000000   1.000000
   46        5.470262      5.575208   1.000000   1.000000
   47        5.524016      5.586847   1.000000   1.000000
   48        5.535316      5.658981   1.000000   1.000000
   49        5.581261      5.673372   1.000000   1.000000
   50        5.619813      5.790229   1.000000   1.000000
   51        5.645431      5.858840   1.000000   1.000000
   52        5.738304      5.917392   1.000000   1.000000
   53        5.819155      5.957849   1.000000   1.000000
   54        5.856896      6.036879   1.000000   1.000000
   55        5.896422      6.050391   1.000000   1.000000
   56        5.923475      6.083179   1.000000   1.000000
   57        6.039137      6.205429   1.000000   1.000000
   58        6.125117      6.213177   1.000000   1.000000
   59        6.157622      6.218551   1.000000   1.000000
   60        6.173974      6.326036   1.000000   1.000000