       N       E                     dE             d eps       ncg     rms          ort
DAV:   1     0.135164422043E+04    0.13516E+04   -0.59038E+04  2688   0.143E+03
DAV:   2    -0.601854970247E+02   -0.14118E+04   -0.13789E+04  2688   0.437E+02
DAV:   3    -0.238269811683E+03   -0.17808E+03   -0.15975E+03  2688   0.168E+02
DAV:   4    -0.266719049320E+03   -0.28449E+02   -0.25487E+02  2688   0.733E+01
DAV:   5    -0.269676668494E+03   -0.29576E+01   -0.28446E+01  2688   0.216E+01
DAV:   6    -0.269902016628E+03   -0.22535E+00   -0.22094E+00  2688   0.552E+00
DAV:   7    -0.269926184773E+03   -0.24168E-01   -0.23942E-01  2688   0.160E+00
DAV:   8    -0.269928011607E+03   -0.18268E-02   -0.18143E-02  2688   0.400E-01
SDA:   9    -0.700046846183E+02    0.19992E+03   -0.18143E-02  2688   0.222E+04 0.000E+00
CGA:  10    -0.213040674649E+03   -0.14304E+03   -0.14483E+03  2688   0.885E+02 0.300E+03
CGA:  11    -0.221609479009E+03   -0.85688E+01   -0.88044E+01  2688   0.633E+02-0.157E+01
CGA:  12    -0.230767795373E+03   -0.91583E+01   -0.90067E+01  2688   0.820E+02-0.928E+00
CGA:  13    -0.235344650667E+03   -0.45769E+01   -0.46223E+01  2688   0.879E+01 0.101E+01
CGA:  14    -0.236067276079E+03   -0.72263E+00   -0.72840E+00  2688   0.536E+01-0.337E-01
CGA:  15    -0.236931346811E+03   -0.86407E+00   -0.86439E+00  2688   0.416E+01 0.141E-01
CGA:  16    -0.237293928877E+03   -0.36258E+00   -0.36032E+00  2688   0.168E+01 0.179E-01
CGA:  17    -0.237410359380E+03   -0.11643E+00   -0.11485E+00  2688   0.116E+01 0.154E-01
CGA:  18    -0.237623026823E+03   -0.21267E+00   -0.21263E+00  2688   0.662E+00 0.789E-03
CGA:  19    -0.237685904643E+03   -0.62878E-01   -0.63024E-01  2688   0.281E+00-0.894E-03
CGA:  20    -0.237737664357E+03   -0.51760E-01   -0.51747E-01  2688   0.364E+00 0.311E-03
CGA:  21    -0.237787535124E+03   -0.49871E-01   -0.49855E-01  2688   0.208E+00-0.422E-03
CGA:  22    -0.237798746759E+03   -0.11212E-01   -0.11189E-01  2688   0.745E-01 0.700E-04
CGA:  23    -0.237813101832E+03   -0.14355E-01   -0.14369E-01  2688   0.995E-01-0.350E-03
CGA:  24    -0.237827228277E+03   -0.14126E-01   -0.14125E-01  2688   0.633E-01-0.250E-03
CGA:  25    -0.237835515984E+03   -0.82877E-02   -0.82834E-02  2688   0.399E-01-0.219E-03
CGA:  26    -0.237844867446E+03   -0.93515E-02   -0.93806E-02  2688   0.217E-01-0.311E-03
CGA:  27    -0.237847840811E+03   -0.29734E-02   -0.29722E-02  2688   0.145E-01-0.197E-04
CGA:  28    -0.237850607072E+03   -0.27663E-02   -0.27682E-02  2688   0.161E-01-0.290E-04
CGA:  29    -0.237852420624E+03   -0.18136E-02   -0.18136E-02  2688   0.159E-01-0.113E-04
CGA:  30    -0.237853743752E+03   -0.13231E-02   -0.13201E-02  2688   0.866E-02 0.873E-06
CGA:  31    -0.237855489208E+03   -0.17455E-02   -0.17459E-02  2688   0.487E-02 0.185E-04
CGA:  32    -0.237856160894E+03   -0.67169E-03   -0.67233E-03  2688   0.360E-02 0.462E-04
CGA:  33    -0.237856684757E+03   -0.52386E-03   -0.52435E-03  2688   0.317E-02 0.462E-04
CGA:  34    -0.237857072618E+03   -0.38786E-03   -0.38871E-03  2688   0.375E-02 0.313E-04
CGA:  35    -0.237857413801E+03   -0.34118E-03   -0.34293E-03  2688   0.198E-02 0.246E-04
CGA:  36    -0.237857819771E+03   -0.40597E-03   -0.40434E-03  2688   0.982E-03 0.322E-04
CGA:  37    -0.237857961789E+03   -0.14202E-03   -0.14217E-03  2688   0.800E-03 0.139E-04
CGA:  38    -0.237858073312E+03   -0.11152E-03   -0.11157E-03  2688   0.119E-02 0.427E-05
CGA:  39    -0.237858190232E+03   -0.11692E-03   -0.11692E-03  2688   0.740E-03-0.177E-05
SDA:  40    -0.237858293526E+03   -0.10329E-03   -0.10319E-03  2688   0.404E-03-0.124E-04
CGA:  41    -0.237858360674E+03   -0.67147E-04   -0.67124E-04  2688   0.483E-03 0.138E-05
CGA:  42    -0.237858399781E+03   -0.39107E-04   -0.39029E-04  2688   0.259E-03-0.109E-05
CGA:  43    -0.237858424344E+03   -0.24563E-04   -0.24472E-04  2688   0.190E-03-0.184E-05
CGA:  44    -0.237858466649E+03   -0.42305E-04   -0.42786E-04  2688   0.148E-03-0.580E-05
CGA:  45    -0.237858511214E+03   -0.44565E-04   -0.44436E-04  2688   0.148E-03 0.746E-06
CGA:  46    -0.237858534715E+03   -0.23501E-04   -0.23504E-04  2688   0.156E-03-0.452E-06
CGA:  47    -0.237858557029E+03   -0.22314E-04   -0.22304E-04  2688   0.118E-03-0.802E-06
CGA:  48    -0.237858565472E+03   -0.84428E-05   -0.84231E-05  2688   0.873E-04-0.147E-06
CGA:  49    -0.237858587928E+03   -0.22456E-04   -0.22157E-04  2688   0.118E-03 0.312E-05
CGA:  50    -0.237858601331E+03   -0.13403E-04   -0.13504E-04  2688   0.548E-04 0.221E-05
CGA:  51    -0.237858618741E+03   -0.17410E-04   -0.17093E-04  2688   0.246E-04 0.226E-05
CGA:  52    -0.237858624971E+03   -0.62301E-05   -0.62106E-05  2688   0.750E-04 0.222E-06
CGA:  53    -0.237858632035E+03   -0.70639E-05   -0.70501E-05  2688   0.450E-04 0.609E-07
CGA:  54    -0.237858636646E+03   -0.46110E-05   -0.46679E-05  2688   0.294E-04 0.105E-05
CGA:  55    -0.237858642738E+03   -0.60926E-05   -0.60098E-05  2688   0.255E-04 0.197E-05
CGA:  56    -0.237858647143E+03   -0.44046E-05   -0.44043E-05  2688   0.395E-04 0.107E-06
CGA:  57    -0.237858649944E+03   -0.28014E-05   -0.28074E-05  2688   0.152E-04 0.172E-07
CGA:  58    -0.237858651833E+03   -0.18884E-05   -0.18923E-05  2688   0.165E-04 0.122E-06
CGA:  59    -0.237858656518E+03   -0.46850E-05   -0.45271E-05  2688   0.199E-04 0.132E-05
CGA:  60    -0.237858657628E+03   -0.11101E-05   -0.11517E-05  2688   0.778E-05 0.349E-06
CGA:  61    -0.237858659823E+03   -0.21952E-05   -0.21950E-05  2688   0.120E-04-0.215E-07
CGA:  62    -0.237858660945E+03   -0.11217E-05   -0.11237E-05  2688   0.269E-05 0.713E-07
CGA:  63    -0.237858661627E+03   -0.68264E-06   -0.68170E-06  2688   0.960E-05 0.192E-07
CGA:  64    -0.237858662395E+03   -0.76740E-06   -0.77501E-06  2688   0.204E-05 0.123E-06
CGA:  65    -0.237858662880E+03   -0.48578E-06   -0.51935E-06  2688   0.419E-05-0.363E-06
CGA:  66    -0.237858663295E+03   -0.41419E-06   -0.40905E-06  2688   0.192E-05-0.103E-06
CGA:  67    -0.237858663470E+03   -0.17529E-06   -0.18956E-06  2688   0.148E-05 0.232E-06
CGA:  68    -0.237858663601E+03   -0.13107E-06   -0.15019E-06  2688   0.837E-06 0.289E-06
CGA:  69    -0.237858663740E+03   -0.13900E-06   -0.14169E-06  2688   0.103E-05 0.159E-06
CGA:  70    -0.237858663876E+03   -0.13609E-06   -0.14150E-06  2688   0.366E-06 0.151E-06
SDA:  71    -0.237858663909E+03   -0.32986E-07   -0.40505E-07  2688   0.339E-06 0.129E-06
   1 F= -.23785866E+03 E0= -.23786663E+03  d E =0.239075E-01  mag=     4.2130
