 vasp.5.4.4.18Apr17-6-g9f103f2a35 (build Dec 20 2018 12:05:58) complex          
  
 executed on             LinuxIFC date 2019.06.20  15:31:40
 running on   32 total cores
 distrk:  each k-point on    8 cores,    4 groups
 distr:  one band on NCORES_PER_BAND=   4 cores,    2 groups


--------------------------------------------------------------------------------------------------------


 INCAR:
 POTCAR:    PAW_PBE Al 04Jan2001                  
 POTCAR:    PAW_PBE Mn 06Sep2000                  

 ----------------------------------------------------------------------------- 
|                                                                             |
|           W    W    AA    RRRRR   N    N  II  N    N   GGGG   !!!           |
|           W    W   A  A   R    R  NN   N  II  NN   N  G    G  !!!           |
|           W    W  A    A  R    R  N N  N  II  N N  N  G       !!!           |
|           W WW W  AAAAAA  RRRRR   N  N N  II  N  N N  G  GGG   !            |
|           WW  WW  A    A  R   R   N   NN  II  N   NN  G    G                |
|           W    W  A    A  R    R  N    N  II  N    N   GGGG   !!!           |
|                                                                             |
|      You have enabled k-point parallelism (KPAR>1).                         |
|      This developmental code was originally  written by Paul Kent at ORNL,  |
|      and carefully double checked in Vienna.                                |
|      GW as well as linear response parallelism added by Martijn Marsman     |
|      and Georg Kresse.                                                      |
|      Carefully verify results versus KPAR=1.                                |
|      Report problems to Paul Kent and Vienna.                               |
|                                                                             |
 ----------------------------------------------------------------------------- 

 POTCAR:    PAW_PBE Al 04Jan2001                  
   VRHFIN =Al: s2p1                                                             
   LEXCH  = PE                                                                  
   EATOM  =    53.5387 eV,    3.9350 Ry                                         
                                                                                
   TITEL  = PAW_PBE Al 04Jan2001                                                
   LULTRA =        F    use ultrasoft PP ?                                      
   IUNSCR =        1    unscreen: 0-lin 1-nonlin 2-no                           
   RPACOR =    1.500    partial core radius                                     
   POMASS =   26.981; ZVAL   =    3.000    mass and valenz                      
   RCORE  =    1.900    outmost cutoff radius                                   
   RWIGS  =    2.650; RWIGS  =    1.402    wigner-seitz radius (au A)           
   ENMAX  =  240.300; ENMIN  =  180.225 eV                                      
   ICORE  =        2    local potential                                         
   LCOR   =        T    correct aug charges                                     
   LPAW   =        T    paw PP                                                  
   EAUG   =  291.052                                                            
   DEXC   =    0.000                                                            
   RMAX   =    1.939    core radius for proj-oper                               
   RAUG   =    1.300    factor for augmentation sphere                          
   RDEP   =    1.966    radius for radial grids                                 
   RDEPT  =    1.856    core radius for aug-charge                              
                                                                                
   Atomic configuration                                                         
    6 entries                                                                   
     n  l   j            E        occ.                                          
     1  0  0.50     -1511.1048   2.0000                                         
     2  0  0.50      -108.1629   2.0000                                         
     2  1  1.50       -69.6402   6.0000                                         
     3  0  0.50        -7.7528   2.0000                                         
     3  1  1.50        -2.7121   1.0000                                         
     3  2  2.50        -2.7212   0.0000                                         
   Description                                                                  
     l       E           TYP  RCUT    TYP  RCUT                                 
     0     -7.7528455     23  1.900                                             
     0     -3.3096929     23  1.900                                             
     1     -2.7120682     23  1.900                                             
     1     13.6058260     23  1.900                                             
     2     -2.7211652      7  1.900                                             
  local pseudopotential read in
  partial core-charges read in
  partial kinetic energy density read in
  atomic valenz-charges read in
  non local Contribution for L=           0  read in
    real space projection operators read in
  non local Contribution for L=           0  read in
    real space projection operators read in
  non local Contribution for L=           1  read in
    real space projection operators read in
  non local Contribution for L=           1  read in
    real space projection operators read in
    PAW grid and wavefunctions read in
 
   number of l-projection  operators is LMAX  =           4
   number of lm-projection operators is LMMAX =           8
 
 POTCAR:    PAW_PBE Mn 06Sep2000                  
   VRHFIN =Mn: d6 s1                                                            
   LEXCH  = PE                                                                  
   EATOM  =   416.7541 eV,   30.6306 Ry                                         
                                                                                
   TITEL  = PAW_PBE Mn 06Sep2000                                                
   LULTRA =        F    use ultrasoft PP ?                                      
   IUNSCR =        1    unscreen: 0-lin 1-nonlin 2-no                           
   RPACOR =    2.000    partial core radius                                     
   POMASS =   54.938; ZVAL   =    7.000    mass and valenz                      
   RCORE  =    2.300    outmost cutoff radius                                   
   RWIGS  =    2.500; RWIGS  =    1.323    wigner-seitz radius (au A)           
   ENMAX  =  269.864; ENMIN  =  202.398 eV                                      
   RCLOC  =    1.725    cutoff for local pot                                    
   LCOR   =        T    correct aug charges                                     
   LPAW   =        T    paw PP                                                  
   EAUG   =  500.711                                                            
   DEXC   =    0.000                                                            
   RMAX   =    2.343    core radius for proj-oper                               
   RAUG   =    1.300    factor for augmentation sphere                          
   RDEP   =    2.338    radius for radial grids                                 
   RDEPT  =    1.911    core radius for aug-charge                              
                                                                                
   Atomic configuration                                                         
    9 entries                                                                   
     n  l   j            E        occ.                                          
     1  0  0.50     -6424.8288   2.0000                                         
     2  0  0.50      -739.1154   2.0000                                         
     2  1  1.50      -625.3949   6.0000                                         
     3  0  0.50       -81.6100   2.0000                                         
     3  1  1.50       -50.4667   6.0000                                         
     3  2  2.50        -3.3745   6.0000                                         
     4  0  0.50        -4.1331   1.0000                                         
     4  1  0.50        -4.0817   0.0000                                         
     4  3  2.50        -1.3606   0.0000                                         
   Description                                                                  
     l       E           TYP  RCUT    TYP  RCUT                                 
     2     -3.3744664     23  2.300                                             
     2     -4.7350490     23  2.300                                             
     0     -4.1331408     23  2.300                                             
     0      7.6656614     23  2.300                                             
     1     -2.7211652     23  2.300                                             
     1     20.4087390     23  2.300                                             
  local pseudopotential read in
  partial core-charges read in
  partial kinetic energy density read in
  atomic valenz-charges read in
  non local Contribution for L=           2  read in
    real space projection operators read in
  non local Contribution for L=           2  read in
    real space projection operators read in
  non local Contribution for L=           0  read in
    real space projection operators read in
  non local Contribution for L=           0  read in
    real space projection operators read in
  non local Contribution for L=           1  read in
    real space projection operators read in
  non local Contribution for L=           1  read in
    real space projection operators read in
    PAW grid and wavefunctions read in
 
   number of l-projection  operators is LMAX  =           6
   number of lm-projection operators is LMMAX =          18
 

 ----------------------------------------------------------------------------- 
|                                                                             |
|  ADVICE TO THIS USER RUNNING 'VASP/VAMP'   (HEAR YOUR MASTER'S VOICE ...):  |
|                                                                             |
|      You have a (more or less) 'large supercell' and for larger cells       |
|      it might be more efficient to use real space projection opertators     |
|      So try LREAL= Auto  in the INCAR   file.                               |
|      Mind:          For very  accurate calculation you might also keep the  |
|      reciprocal projection scheme          (i.e. LREAL=.FALSE.)             |
|                                                                             |
 ----------------------------------------------------------------------------- 

  PAW_PBE Al 04Jan2001                  :
 energy of atom  1       EATOM=  -53.5387
 kinetic energy error for atom=    0.0005 (will be added to EATOM!!)
  PAW_PBE Mn 06Sep2000                  :
 energy of atom  2       EATOM= -416.7541
 kinetic energy error for atom=    0.0080 (will be added to EATOM!!)
 
 
 POSCAR: NewRef: 18, @ ['Mn', array([1.37502469, 
  positions in cartesian coordinates
  velocities in cartesian coordinates
  No initial velocities read in
 exchange correlation table for  LEXCH =        8
   RHO(1)=    0.500       N(1)  =     2000
   RHO(2)=  100.500       N(2)  =     4000
 


--------------------------------------------------------------------------------------------------------


 ion  position               nearest neighbor table
   1  0.000  0.000  0.000-  20 2.61  24 2.61  32 2.61  36 2.61  31 2.61  23 2.61  35 2.61  19 2.61
                             3 2.75   7 2.75   5 2.75  13 2.75
   2  0.000  0.000  0.500-  19 2.61  23 2.61  31 2.61  35 2.61  20 2.61  32 2.61  24 2.61  36 2.61
                             4 2.75   8 2.75   6 2.75  14 2.75
   3  0.000  0.333  0.000-  20 2.61  32 2.61  22 2.61  34 2.61  19 2.61  31 2.61  33 2.61  21 2.61
                             9 2.75   1 2.75   5 2.75  15 2.75
   4  0.000  0.333  0.500-  19 2.61  31 2.61  21 2.61  33 2.61  32 2.61  20 2.61  22 2.61  34 2.61
                            10 2.75   2 2.75   6 2.75  16 2.75
   5  0.000  0.667  0.000-  22 2.61  34 2.61  24 2.61  36 2.61  21 2.61  33 2.61  35 2.61  23 2.61
                             3 2.75  11 2.75   1 2.75  17 2.75
   6  0.000  0.667  0.500-  21 2.61  33 2.61  23 2.61  35 2.61  34 2.61  22 2.61  24 2.61  36 2.61
                             4 2.75  12 2.75   2 2.75  18 2.75
   7  0.333  0.000  0.000-  20 2.61  24 2.61  26 2.61  30 2.61  23 2.61  19 2.61  29 2.61  25 2.61
                            13 2.75   1 2.75   9 2.75  11 2.75
   8  0.333  0.000  0.500-  19 2.61  23 2.61  25 2.61  29 2.61  20 2.61  24 2.61  26 2.61  30 2.61
                            14 2.75   2 2.75  10 2.75  12 2.75
   9  0.333  0.333  0.000-  20 2.61  22 2.61  26 2.61  19 2.61  28 2.61  21 2.61  25 2.61  27 2.61
                             3 2.75   7 2.75  11 2.75  15 2.75
  10  0.333  0.333  0.500-  19 2.61  21 2.61  25 2.61  20 2.61  27 2.61  26 2.61  22 2.61  28 2.61
                             4 2.75   8 2.75  12 2.75  16 2.75
  11  0.333  0.667  0.000-  22 2.61  24 2.61  28 2.61  21 2.61  30 2.61  23 2.61  27 2.61  29 2.61
                            17 2.75   5 2.75   9 2.75   7 2.75
  12  0.333  0.667  0.500-  21 2.61  23 2.61  27 2.61  22 2.61  29 2.61  28 2.61  24 2.61  30 2.61
                            18 2.75   6 2.75  10 2.75   8 2.75
  13  0.667  0.000  0.000-  26 2.61  30 2.61  32 2.61  36 2.61  29 2.61  25 2.61  35 2.61  31 2.61
                             7 2.75  15 2.75   1 2.75  17 2.75
  14  0.667  0.000  0.500-  25 2.61  29 2.61  31 2.61  35 2.61  26 2.61  30 2.61  32 2.61  36 2.61
                             8 2.75  16 2.75   2 2.75  18 2.75
  15  0.667  0.333  0.000-  26 2.61  28 2.61  32 2.61  25 2.61  34 2.61  27 2.61  31 2.61  33 2.61
                            17 2.75   9 2.75  13 2.75   3 2.75
  16  0.667  0.333  0.500-  25 2.61  27 2.61  31 2.61  26 2.61  33 2.61  32 2.61  28 2.61  34 2.61
                            18 2.75  10 2.75  14 2.75   4 2.75
  17  0.667  0.667  0.000-  28 2.61  30 2.61  34 2.61  27 2.61  36 2.61  29 2.61  33 2.61  35 2.61
                            11 2.75  15 2.75  13 2.75   5 2.75
  18  0.667  0.667  0.500-  27 2.61  29 2.61  33 2.61  28 2.61  35 2.61  34 2.61  30 2.61  36 2.61
                            12 2.75  16 2.75  14 2.75   6 2.75
  19  0.167  0.167  0.250-  10 2.61   8 2.61   4 2.61   9 2.61   2 2.61   7 2.61   3 2.61   1 2.61
                            21 2.75  25 2.75  23 2.75  31 2.75
  20  0.167  0.167  0.750-   9 2.61   7 2.61   3 2.61  10 2.61   1 2.61   4 2.61   8 2.61   2 2.61
                            22 2.75  26 2.75  24 2.75  32 2.75
  21  0.167  0.500  0.250-  12 2.61  10 2.61   6 2.61  11 2.61   4 2.61   9 2.61   5 2.61   3 2.61
                            19 2.75  23 2.75  27 2.75  33 2.75
  22  0.167  0.500  0.750-  11 2.61   9 2.61   5 2.61  12 2.61   3 2.61   6 2.61  10 2.61   4 2.61
                            20 2.75  24 2.75  28 2.75  34 2.75
  23  0.167  0.833  0.250-   8 2.61  12 2.61   2 2.61   6 2.61  11 2.61   7 2.61   5 2.61   1 2.61
                            21 2.75  29 2.75  19 2.75  35 2.75
  24  0.167  0.833  0.750-   7 2.61  11 2.61   1 2.61   5 2.61   8 2.61  12 2.61   2 2.61   6 2.61
                            22 2.75  30 2.75  20 2.75  36 2.75
  25  0.500  0.167  0.250-  16 2.61  14 2.61  10 2.61  15 2.61   8 2.61  13 2.61   9 2.61   7 2.61
                            19 2.75  27 2.75  31 2.75  29 2.75
  26  0.500  0.167  0.750-  15 2.61  13 2.61   9 2.61  16 2.61   7 2.61  10 2.61  14 2.61   8 2.61
                            20 2.75  28 2.75  32 2.75  30 2.75
  27  0.500  0.500  0.250-  18 2.61  16 2.61  12 2.61  17 2.61  10 2.61  15 2.61  11 2.61   9 2.61
                            21 2.75  25 2.75  29 2.75  33 2.75
  28  0.500  0.500  0.750-  17 2.61  15 2.61  11 2.61  18 2.61   9 2.61  12 2.61  16 2.61  10 2.61
                            22 2.75  26 2.75  30 2.75  34 2.75
  29  0.500  0.833  0.250-  14 2.61  18 2.61   8 2.61  12 2.61  17 2.61  13 2.61  11 2.61   7 2.61
                            23 2.75  27 2.75  35 2.75  25 2.75
  30  0.500  0.833  0.750-  13 2.61  17 2.61   7 2.61  11 2.61  14 2.61  18 2.61   8 2.61  12 2.61
                            24 2.75  28 2.75  36 2.75  26 2.75
  31  0.833  0.167  0.250-   4 2.61  16 2.61  14 2.61   2 2.61  15 2.61   3 2.61  13 2.61   1 2.61
                            25 2.75  33 2.75  19 2.75  35 2.75
  32  0.833  0.167  0.750-   3 2.61  15 2.61  13 2.61   1 2.61   4 2.61  16 2.61   2 2.61  14 2.61
                            26 2.75  34 2.75  20 2.75  36 2.75
  33  0.833  0.500  0.250-   6 2.61  18 2.61  16 2.61   4 2.61  17 2.61   5 2.61  15 2.61   3 2.61
                            27 2.75  31 2.75  35 2.75  21 2.75
  34  0.833  0.500  0.750-   5 2.61  17 2.61  15 2.61   3 2.61   6 2.61  18 2.61   4 2.61  16 2.61
                            28 2.75  32 2.75  36 2.75  22 2.75
  35  0.833  0.833  0.250-   2 2.61   6 2.61  14 2.61  18 2.61  13 2.61   5 2.61  17 2.61   1 2.61
                            29 2.75  33 2.75  31 2.75  23 2.75
  36  0.833  0.833  0.750-   1 2.61   5 2.61  13 2.61  17 2.61   2 2.61  14 2.61   6 2.61  18 2.61
                            30 2.75  34 2.75  32 2.75  24 2.75
 
  LATTYP: Found a simple tetragonal cell.
 ALAT       =     8.2501481662
 C/A-ratio  =     0.8428059861
  
  Lattice vectors:
  
 A1 = (   8.2501481662,   0.0000000000,   0.0000000000)
 A2 = (   0.0000000000,   8.2501481662,   0.0000000000)
 A3 = (   0.0000000000,   0.0000000000,   6.9532742610)


Analysis of symmetry for initial positions (statically):
=====================================================================
 Subroutine PRICEL returns following result:
 
  LATTYP: Found a simple tetragonal cell.
 ALAT       =     2.7500493888
 C/A-ratio  =     1.2642089792
  
  Lattice vectors:
  
 A1 = (   2.7500493888,   0.0000000000,   0.0000000000)
 A2 = (   0.0000000000,   2.7500493888,   0.0000000000)
 A3 = (   0.0000000000,   0.0000000000,   3.4766371305)
 
  18 primitive cells build up your supercell.
 

 Routine SETGRP: Setting up the symmetry group for a 
 simple tetragonal supercell.


 Subroutine GETGRP returns: Found 16 space group operations
 (whereof 16 operations were pure point group operations)
 out of a pool of 16 trial point group operations.


The static configuration has the point symmetry D_4h.


Analysis of symmetry for dynamics (positions and initial velocities):
=====================================================================
 Subroutine PRICEL returns following result:
 
  LATTYP: Found a simple tetragonal cell.
 ALAT       =     2.7500493888
 C/A-ratio  =     1.2642089792
  
  Lattice vectors:
  
 A1 = (   2.7500493888,   0.0000000000,   0.0000000000)
 A2 = (   0.0000000000,   2.7500493888,   0.0000000000)
 A3 = (   0.0000000000,   0.0000000000,   3.4766371305)
 
  18 primitive cells build up your supercell.
 

 Routine SETGRP: Setting up the symmetry group for a 
 simple tetragonal supercell.


 Subroutine GETGRP returns: Found 16 space group operations
 (whereof 16 operations were pure point group operations)
 out of a pool of 16 trial point group operations.


The dynamic configuration has the point symmetry D_4h.


Analysis of structural, dynamic, and magnetic symmetry:
=====================================================================
 Subroutine PRICEL returns:
 Original cell was already a primitive cell.
 

 Routine SETGRP: Setting up the symmetry group for a 
 simple tetragonal supercell.


 Subroutine GETGRP returns: Found 16 space group operations
 (whereof  2 operations were pure point group operations)
 out of a pool of 16 trial point group operations.


The magnetic configuration has the point symmetry C_1h.
 The point group associated with its full space group is D_4h.


 Subroutine INISYM returns: Found 16 space group operations
 (whereof  2 operations are pure point group operations),
 and found     1 'primitive' translations

 
 
 KPOINTS: automatic KPOINTS                       

Automatic generation of k-mesh.
 generate k-points for:    5    5    6
Space group operators:
 irot       det(A)        alpha          n_x          n_y          n_z        tau_x        tau_y        tau_z
    1     1.000000     0.000001     1.000000     0.000000     0.000000     0.000000     0.000000     0.000000
    2    -1.000000   180.000000     0.707107    -0.707107     0.000000     0.000000     0.000000     0.000000
    3    -1.000000     0.000001     1.000000     0.000000     0.000000     0.333333     0.333333     0.500000
    4     1.000000    90.000000     0.000000     0.000000    -1.000000     0.333333     0.000000     0.000000
    5    -1.000000    90.000000     0.000000     0.000000    -1.000000     0.000000     0.333333     0.500000
    6     1.000000   179.999999     0.000000     0.000000     1.000000     0.333333     0.333333     0.000000
    7    -1.000000   179.999999     0.000000     0.000000     1.000000     0.000000     0.000000     0.500000
    8     1.000000    90.000000     0.000000     0.000000     1.000000     0.000000     0.333333     0.000000
    9    -1.000000    90.000000     0.000000     0.000000     1.000000     0.333333     0.000000     0.500000
   10     1.000000   180.000000     0.000000     1.000000     0.000000     0.333333     0.000000     0.500000
   11    -1.000000   180.000000     0.000000     1.000000     0.000000     0.000000     0.333333     0.000000
   12     1.000000   180.000000     0.707107     0.707107     0.000000     0.000000     0.000000     0.500000
   13    -1.000000   180.000000     0.707107     0.707107     0.000000     0.333333     0.333333     0.000000
   14     1.000000   180.000000     1.000000     0.000000     0.000000     0.000000     0.333333     0.500000
   15    -1.000000   180.000000     1.000000     0.000000     0.000000     0.333333     0.000000     0.000000
   16     1.000000   180.000000     0.707107    -0.707107     0.000000     0.333333     0.333333     0.500000
 
 Subroutine IBZKPT returns following result:
 ===========================================
 
 Found     24 irreducible k-points:
 
 Following reciprocal coordinates:
            Coordinates               Weight
  0.000000  0.000000  0.000000      1.000000
  0.200000  0.000000  0.000000      4.000000
  0.400000  0.000000  0.000000      4.000000
  0.200000  0.200000  0.000000      4.000000
  0.400000  0.200000  0.000000      8.000000
  0.400000  0.400000  0.000000      4.000000
  0.000000  0.000000  0.166667      2.000000
  0.200000  0.000000  0.166667      8.000000
  0.400000  0.000000  0.166667      8.000000
  0.200000  0.200000  0.166667      8.000000
  0.400000  0.200000  0.166667     16.000000
  0.400000  0.400000  0.166667      8.000000
  0.000000  0.000000  0.333333      2.000000
  0.200000  0.000000  0.333333      8.000000
  0.400000  0.000000  0.333333      8.000000
  0.200000  0.200000  0.333333      8.000000
  0.400000  0.200000  0.333333     16.000000
  0.400000  0.400000  0.333333      8.000000
  0.000000  0.000000  0.500000      1.000000
  0.200000  0.000000  0.500000      4.000000
  0.400000  0.000000  0.500000      4.000000
  0.200000  0.200000  0.500000      4.000000
  0.400000  0.200000  0.500000      8.000000
  0.400000  0.400000  0.500000      4.000000
 
 Following cartesian coordinates:
            Coordinates               Weight
  0.000000  0.000000  0.000000      1.000000
  0.024242  0.000000  0.000000      4.000000
  0.048484  0.000000  0.000000      4.000000
  0.024242  0.024242  0.000000      4.000000
  0.048484  0.024242  0.000000      8.000000
  0.048484  0.048484  0.000000      4.000000
  0.000000  0.000000  0.023970      2.000000
  0.024242  0.000000  0.023970      8.000000
  0.048484  0.000000  0.023970      8.000000
  0.024242  0.024242  0.023970      8.000000
  0.048484  0.024242  0.023970     16.000000
  0.048484  0.048484  0.023970      8.000000
  0.000000  0.000000  0.047939      2.000000
  0.024242  0.000000  0.047939      8.000000
  0.048484  0.000000  0.047939      8.000000
  0.024242  0.024242  0.047939      8.000000
  0.048484  0.024242  0.047939     16.000000
  0.048484  0.048484  0.047939      8.000000
  0.000000  0.000000  0.071909      1.000000
  0.024242  0.000000  0.071909      4.000000
  0.048484  0.000000  0.071909      4.000000
  0.024242  0.024242  0.071909      4.000000
  0.048484  0.024242  0.071909      8.000000
  0.048484  0.048484  0.071909      4.000000
 


--------------------------------------------------------------------------------------------------------




 Dimension of arrays:
   k-points           NKPTS =     24   k-points in BZ     NKDIM =     24   number of bands    NBANDS=    112
   number of dos      NEDOS =    301   number of ions     NIONS =     36
   non local maximal  LDIM  =      6   non local SUM 2l+1 LMDIM =     18
   total plane-waves  NPLWV = 139968
   max r-space proj   IRMAX =      1   max aug-charges    IRDMAX=  92271
   dimension x,y,z NGX =    54 NGY =   54 NGZ =   48
   dimension x,y,z NGXF=   108 NGYF=  108 NGZF=   96
   support grid    NGXF=   216 NGYF=  216 NGZF=  192
   ions per type =              18  18
   NGX,Y,Z   is equivalent  to a cutoff of  10.88, 10.88, 11.48 a.u.
   NGXF,Y,Z  is equivalent  to a cutoff of  21.76, 21.76, 22.95 a.u.

 SYSTEM =  AlMn_pv                                 
 POSCAR =  NewRef: 18, @ ['Mn', array([1.37502469, 

 Startparameter for this run:
   NWRITE =      2    write-flag & timer
   PREC   = accura    normal or accurate (medium, high low for compatibility)
   ISTART =      0    job   : 0-new  1-cont  2-samecut
   ICHARG =      2    charge: 1-file 2-atom 10-const
   ISPIN  =      2    spin polarized calculation?
   LNONCOLLINEAR =      F non collinear calculations
   LSORBIT =      F    spin-orbit coupling
   INIWAV =      1    electr: 0-lowe 1-rand  2-diag
   LASPH  =      F    aspherical Exc in radial PAW
   METAGGA=      F    non-selfconsistent MetaGGA calc.

 Electronic Relaxation 1
   ENCUT  =  404.8 eV  29.75 Ry    5.45 a.u.  13.53 13.53 11.41*2*pi/ulx,y,z
   ENINI  =  404.8     initial cutoff
   ENAUG  =  500.7 eV  augmentation charge cutoff
   NELM   =    100;   NELMIN=  4; NELMDL= -8     # of ELM steps 
   EDIFF  = 0.1E-06   stopping-criterion for ELM
   LREAL  =      F    real-space projection
   NLSPLINE    = F    spline interpolate recip. space projectors
   LCOMPAT=      F    compatible to vasp.4.4
   GGA_COMPAT  = T    GGA compatible to vasp.4.4-vasp.4.6
   LMAXPAW     = -100 max onsite density
   LMAXMIX     =    2 max onsite mixed and CHGCAR
   VOSKOWN=      0    Vosko Wilk Nusair interpolation
   ROPT   =    0.00000   0.00000
 Ionic relaxation
   EDIFFG = 0.1E-05   stopping-criterion for IOM
   NSW    =      0    number of steps for IOM
   NBLOCK =      1;   KBLOCK =      1    inner block; outer block 
   IBRION =     -1    ionic relax: 0-MD 1-quasi-New 2-CG
   NFREE  =      0    steps in history (QN), initial steepest desc. (CG)
   ISIF   =      2    stress and relaxation
   IWAVPR =     10    prediction:  0-non 1-charg 2-wave 3-comb
   ISYM   =      2    0-nonsym 1-usesym 2-fastsym
   LCORR  =      T    Harris-Foulkes like correction to forces

   POTIM  = 0.2000    time-step for ionic-motion
   TEIN   =    0.0    initial temperature
   TEBEG  =    0.0;   TEEND  =   0.0 temperature during run
   SMASS  =  -3.00    Nose mass-parameter (am)
   estimated Nose-frequenzy (Omega)   =  0.10E-29 period in steps =****** mass=  -0.156E-26a.u.
   SCALEE = 1.0000    scale energy and forces
   NPACO  =    256;   APACO  = 16.0  distance and # of slots for P.C.
   PSTRESS=    0.0 pullay stress

  Mass of Ions in am
   POMASS =  26.98 54.94
  Ionic Valenz
   ZVAL   =   3.00  7.00
  Atomic Wigner-Seitz radii
   RWIGS  =  -1.00 -1.00
  virtual crystal weights 
   VCA    =   1.00  1.00
   NELECT =     180.0000    total number of electrons
   NUPDOWN=      -1.0000    fix difference up-down

 DOS related values:
   EMIN   =  10.00;   EMAX   =-10.00  energy-range for DOS
   EFERMI =   0.00
   ISMEAR =     1;   SIGMA  =   0.20  broadening in eV -4-tet -1-fermi 0-gaus

 Electronic relaxation 2 (details)
   IALGO  =     58    algorithm
   LDIAG  =      T    sub-space diagonalisation (order eigenvalues)
   LSUBROT=      F    optimize rotation matrix (better conditioning)
   TURBO    =      0    0=normal 1=particle mesh
   IRESTART =      0    0=no restart 2=restart with 2 vectors
   NREBOOT  =      0    no. of reboots
   NMIN     =      0    reboot dimension
   EREF     =   0.00    reference energy to select bands
   IMIX   =      4    mixing-type and parameters
     AMIX     =   0.40;   BMIX     =  1.00
     AMIX_MAG =   1.60;   BMIX_MAG =  1.00
     AMIN     =   0.10
     WC   =   100.;   INIMIX=   1;  MIXPRE=   1;  MAXMIX= -45

 Intra band minimization:
   WEIMIN = 0.0000     energy-eigenvalue tresh-hold
   EBREAK =  0.22E-09  absolut break condition
   DEPER  =   0.30     relativ break condition  

   TIME   =   0.40     timestep for ELM

  volume/ion in A,a.u.               =      13.15        88.72
  Fermi-wavevector in a.u.,A,eV,Ry     =   1.186118  2.241439 19.141722  1.406877
  Thomas-Fermi vector in A             =   2.322298
 
 Write flags
   LWAVE        =      F    write WAVECAR
   LDOWNSAMPLE  =      F    k-point downsampling of WAVECAR
   LCHARG       =      F    write CHGCAR
   LVTOT        =      F    write LOCPOT, total local potential
   LVHAR        =      F    write LOCPOT, Hartree potential only
   LELF         =      F    write electronic localiz. function (ELF)
   LORBIT       =     10    0 simple, 1 ext, 2 COOP (PROOUT), +10 PAW based schemes


 Dipole corrections
   LMONO  =      F    monopole corrections only (constant potential shift)
   LDIPOL =      F    correct potential (dipole corrections)
   IDIPOL =      0    1-x, 2-y, 3-z, 4-all directions 
   EPSILON=  1.0000000 bulk dielectric constant

 Exchange correlation treatment:
   GGA     =    --    GGA type
   LEXCH   =     8    internal setting for exchange type
   VOSKOWN=      0    Vosko Wilk Nusair interpolation
   LHFCALC =     F    Hartree Fock is set to
   LHFONE  =     F    Hartree Fock one center treatment
   AEXX    =    0.0000 exact exchange contribution

 Linear response parameters
   LEPSILON=     F    determine dielectric tensor
   LRPA    =     F    only Hartree local field effects (RPA)
   LNABLA  =     F    use nabla operator in PAW spheres
   LVEL    =     F    velocity operator in full k-point grid
   LINTERFAST=   F  fast interpolation
   KINTER  =     0    interpolate to denser k-point grid
   CSHIFT  =0.1000    complex shift for real part using Kramers Kronig
   OMEGAMAX=  -1.0    maximum frequency
   DEG_THRESHOLD= 0.2000000E-02 threshold for treating states as degnerate
   RTIME   =   -0.100 relaxation time in fs
  (WPLASMAI=    0.000 imaginary part of plasma frequency in eV, 0.658/RTIME)
   DFIELD  = 0.0000000 0.0000000 0.0000000 field for delta impulse in time
 
 Orbital magnetization related:
   ORBITALMAG=     F  switch on orbital magnetization
   LCHIMAG   =     F  perturbation theory with respect to B field
   DQ        =  0.001000  dq finite difference perturbation B field
   LLRAUG    =     F  two centre corrections for induced B field



--------------------------------------------------------------------------------------------------------


 Static calculation
 charge density and potential will be updated during run
 spin polarized calculation
 Conjugate gradient for all bands (Freysoldt, et al. PRB 79, 241103 (2009))
 preconditioned conjugated gradient                                        
 perform sub-space diagonalisation
    before iterative eigenvector-optimisation
 modified Broyden-mixing scheme, WC =      100.0
 initial mixing is a Kerker type mixing with AMIX =  0.4000 and BMIX =      1.0000
 Hartree-type preconditioning will be used
 using additional bands           22
 reciprocal scheme for non local part
 use partial core corrections
 no Harris-corrections to forces 
 use gradient corrections 
 use of overlap-Matrix (Vanderbilt PP)
 Methfessel and Paxton  Order N= 1 SIGMA  =   0.20


--------------------------------------------------------------------------------------------------------


  energy-cutoff  :      404.80
  volume of cell :      473.27
      direct lattice vectors                 reciprocal lattice vectors
     8.250148166  0.000000000  0.000000000     0.121209944  0.000000000  0.000000000
     0.000000000  8.250148166  0.000000000     0.000000000  0.121209944  0.000000000
     0.000000000  0.000000000  6.953274261     0.000000000  0.000000000  0.143817137

  length of vectors
     8.250148166  8.250148166  6.953274261     0.121209944  0.121209944  0.143817137


 
 k-points in units of 2pi/SCALE and weight: automatic KPOINTS                       
   0.00000000  0.00000000  0.00000000       0.007
   0.02424199  0.00000000  0.00000000       0.027
   0.04848398  0.00000000  0.00000000       0.027
   0.02424199  0.02424199  0.00000000       0.027
   0.04848398  0.02424199  0.00000000       0.053
   0.04848398  0.04848398  0.00000000       0.027
   0.00000000  0.00000000  0.02396952       0.013
   0.02424199  0.00000000  0.02396952       0.053
   0.04848398  0.00000000  0.02396952       0.053
   0.02424199  0.02424199  0.02396952       0.053
   0.04848398  0.02424199  0.02396952       0.107
   0.04848398  0.04848398  0.02396952       0.053
   0.00000000  0.00000000  0.04793905       0.013
   0.02424199  0.00000000  0.04793905       0.053
   0.04848398  0.00000000  0.04793905       0.053
   0.02424199  0.02424199  0.04793905       0.053
   0.04848398  0.02424199  0.04793905       0.107
   0.04848398  0.04848398  0.04793905       0.053
   0.00000000  0.00000000  0.07190857       0.007
   0.02424199  0.00000000  0.07190857       0.027
   0.04848398  0.00000000  0.07190857       0.027
   0.02424199  0.02424199  0.07190857       0.027
   0.04848398  0.02424199  0.07190857       0.053
   0.04848398  0.04848398  0.07190857       0.027
 
 k-points in reciprocal lattice and weights: automatic KPOINTS                       
   0.00000000  0.00000000  0.00000000       0.007
   0.20000000  0.00000000  0.00000000       0.027
   0.40000000  0.00000000  0.00000000       0.027
   0.20000000  0.20000000  0.00000000       0.027
   0.40000000  0.20000000  0.00000000       0.053
   0.40000000  0.40000000  0.00000000       0.027
   0.00000000  0.00000000  0.16666667       0.013
   0.20000000  0.00000000  0.16666667       0.053
   0.40000000  0.00000000  0.16666667       0.053
   0.20000000  0.20000000  0.16666667       0.053
   0.40000000  0.20000000  0.16666667       0.107
   0.40000000  0.40000000  0.16666667       0.053
   0.00000000  0.00000000  0.33333333       0.013
   0.20000000  0.00000000  0.33333333       0.053
   0.40000000  0.00000000  0.33333333       0.053
   0.20000000  0.20000000  0.33333333       0.053
   0.40000000  0.20000000  0.33333333       0.107
   0.40000000  0.40000000  0.33333333       0.053
   0.00000000  0.00000000  0.50000000       0.007
   0.20000000  0.00000000  0.50000000       0.027
   0.40000000  0.00000000  0.50000000       0.027
   0.20000000  0.20000000  0.50000000       0.027
   0.40000000  0.20000000  0.50000000       0.053
   0.40000000  0.40000000  0.50000000       0.027
 
 position of ions in fractional coordinates (direct lattice) 
   0.00000000  0.00000000  0.00000000
   0.00000000  0.00000000  0.50000000
   0.00000000  0.33333333  0.00000000
   0.00000000  0.33333333  0.50000000
   0.00000000  0.66666667  0.00000000
   0.00000000  0.66666667  0.50000000
   0.33333333  0.00000000  0.00000000
   0.33333333  0.00000000  0.50000000
   0.33333333  0.33333333  0.00000000
   0.33333333  0.33333333  0.50000000
   0.33333333  0.66666667  0.00000000
   0.33333333  0.66666667  0.50000000
   0.66666667  0.00000000  0.00000000
   0.66666667  0.00000000  0.50000000
   0.66666667  0.33333333  0.00000000
   0.66666667  0.33333333  0.50000000
   0.66666667  0.66666667  0.00000000
   0.66666667  0.66666667  0.50000000
   0.16666667  0.16666667  0.25000000
   0.16666667  0.16666667  0.75000000
   0.16666667  0.50000000  0.25000000
   0.16666667  0.50000000  0.75000000
   0.16666667  0.83333333  0.25000000
   0.16666667  0.83333333  0.75000000
   0.50000000  0.16666667  0.25000000
   0.50000000  0.16666667  0.75000000
   0.50000000  0.50000000  0.25000000
   0.50000000  0.50000000  0.75000000
   0.50000000  0.83333333  0.25000000
   0.50000000  0.83333333  0.75000000
   0.83333333  0.16666667  0.25000000
   0.83333333  0.16666667  0.75000000
   0.83333333  0.50000000  0.25000000
   0.83333333  0.50000000  0.75000000
   0.83333333  0.83333333  0.25000000
   0.83333333  0.83333333  0.75000000
 
 position of ions in cartesian coordinates  (Angst):
   0.00000000  0.00000000  0.00000000
   0.00000000  0.00000000  3.47663713
   0.00000000  2.75004939  0.00000000
   0.00000000  2.75004939  3.47663713
   0.00000000  5.50009878  0.00000000
   0.00000000  5.50009878  3.47663713
   2.75004939  0.00000000  0.00000000
   2.75004939  0.00000000  3.47663713
   2.75004939  2.75004939  0.00000000
   2.75004939  2.75004939  3.47663713
   2.75004939  5.50009878  0.00000000
   2.75004939  5.50009878  3.47663713
   5.50009878  0.00000000  0.00000000
   5.50009878  0.00000000  3.47663713
   5.50009878  2.75004939  0.00000000
   5.50009878  2.75004939  3.47663713
   5.50009878  5.50009878  0.00000000
   5.50009878  5.50009878  3.47663713
   1.37502469  1.37502469  1.73831857
   1.37502469  1.37502469  5.21495570
   1.37502469  4.12507408  1.73831857
   1.37502469  4.12507408  5.21495570
   1.37502469  6.87512347  1.73831857
   1.37502469  6.87512347  5.21495570
   4.12507408  1.37502469  1.73831857
   4.12507408  1.37502469  5.21495570
   4.12507408  4.12507408  1.73831857
   4.12507408  4.12507408  5.21495570
   4.12507408  6.87512347  1.73831857
   4.12507408  6.87512347  5.21495570
   6.87512347  1.37502469  1.73831857
   6.87512347  1.37502469  5.21495570
   6.87512347  4.12507408  1.73831857
   6.87512347  4.12507408  5.21495570
   6.87512347  6.87512347  1.73831857
   6.87512347  6.87512347  5.21495570
 


--------------------------------------------------------------------------------------------------------


 k-point  1 :   0.0000 0.0000 0.0000  plane waves:    8799
 k-point  2 :   0.2000 0.0000 0.0000  plane waves:    8753
 k-point  3 :   0.4000 0.0000 0.0000  plane waves:    8757
 k-point  4 :   0.2000 0.2000 0.0000  plane waves:    8767
 k-point  5 :   0.4000 0.2000 0.0000  plane waves:    8761
 k-point  6 :   0.4000 0.4000 0.0000  plane waves:    8731
 k-point  7 :   0.0000 0.0000 0.1667  plane waves:    8763
 k-point  8 :   0.2000 0.0000 0.1667  plane waves:    8771
 k-point  9 :   0.4000 0.0000 0.1667  plane waves:    8747
 k-point 10 :   0.2000 0.2000 0.1667  plane waves:    8764
 k-point 11 :   0.4000 0.2000 0.1667  plane waves:    8768
 k-point 12 :   0.4000 0.4000 0.1667  plane waves:    8740
 k-point 13 :   0.0000 0.0000 0.3333  plane waves:    8743
 k-point 14 :   0.2000 0.0000 0.3333  plane waves:    8736
 k-point 15 :   0.4000 0.0000 0.3333  plane waves:    8753
 k-point 16 :   0.2000 0.2000 0.3333  plane waves:    8753
 k-point 17 :   0.4000 0.2000 0.3333  plane waves:    8743
 k-point 18 :   0.4000 0.4000 0.3333  plane waves:    8755
 k-point 19 :   0.0000 0.0000 0.5000  plane waves:    8742
 k-point 20 :   0.2000 0.0000 0.5000  plane waves:    8756
 k-point 21 :   0.4000 0.0000 0.5000  plane waves:    8744
 k-point 22 :   0.2000 0.2000 0.5000  plane waves:    8762
 k-point 23 :   0.4000 0.2000 0.5000  plane waves:    8732
 k-point 24 :   0.4000 0.4000 0.5000  plane waves:    8736

 maximum and minimum number of plane-waves per node :      2206     2165

 maximum number of plane-waves:      8799
 maximum index in each direction: 
   IXMAX=   13   IYMAX=   13   IZMAX=   11
   IXMIN=  -13   IYMIN=  -13   IZMIN=  -11


 parallel 3D FFT for wavefunctions:
    minimum data exchange during FFTs selected (reduces bandwidth)
 parallel 3D FFT for charge:
    minimum data exchange during FFTs selected (reduces bandwidth)


 total amount of memory used by VASP MPI-rank0   383621. kBytes
=======================================================================

   base      :      30000. kBytes
   nonl-proj :      16518. kBytes
   fftplans  :      21726. kBytes
   grid      :      14732. kBytes
   one-center:        279. kBytes
   wavefun   :     300366. kBytes
 
     INWAV:  cpu time    0.0001: real time    0.0001
 Broyden mixing: mesh for mixing (old mesh)
   NGX = 27   NGY = 27   NGZ = 23
  (NGX  =108   NGY  =108   NGZ  = 96)
  gives a total of  16767 points

 initial charge density was supplied:
 charge density of overlapping atoms calculated
 number of electron     180.0000000 magnetization       6.0000000
 keeping initial charge density in first step


--------------------------------------------------------------------------------------------------------


 Maximum index for augmentation-charges        11261 (set IRDMAX)


--------------------------------------------------------------------------------------------------------


 First call to EWALD:  gamma=   0.227
 Maximum number of real-space cells 3x 3x 3
 Maximum number of reciprocal cells 3x 3x 3

    FEWALD:  cpu time    0.0022: real time    0.0022


--------------------------------------- Iteration      1(   1)  ---------------------------------------


    POTLOK:  cpu time    0.2490: real time    0.2493
    SETDIJ:  cpu time    0.3218: real time    0.3224
    TRIAL :  cpu time    8.5504: real time    8.6987
    CORREC:  cpu time    0.0032: real time    0.0033
    --------------------------------------------
      LOOP:  cpu time    9.2240: real time    9.3823

 eigenvalue-minimisations  : 10752
 total energy-change (2. order) : 0.1351644E+04  (-0.5903834E+04)
 number of electron     180.0000000 magnetization       6.0000000
 augmentation part      180.0000000 magnetization       6.0000000

 Free energy of the ion-electron system (eV)
  ---------------------------------------------------
  alpha Z        PSCENC =       532.25742704
  Ewald energy   TEWEN  =     -8601.05107233
  -Hartree energ DENC   =     -1903.73857242
  -exchange      EXHF   =         0.00000000
  -V(xc)+E(xc)   XCENC  =      -664.10578080
  PAW double counting   =      8494.55058411    -7650.81563588
  entropy T*S    EENTRO =        -0.00732793
  eigenvalues    EBANDS =      2679.43859018
  atomic energy  EATOM  =      8465.11600846
  ---------------------------------------------------
  free energy    TOTEN  =      1351.64422043 eV

  energy without entropy =     1351.65154836  energy(sigma->0) =     1351.64666307


--------------------------------------------------------------------------------------------------------




--------------------------------------- Iteration      1(   2)  ---------------------------------------


    TRIAL :  cpu time    8.5600: real time    8.7596
    CORREC:  cpu time    0.0039: real time    0.0049
    --------------------------------------------
      LOOP:  cpu time    8.5649: real time    8.7672

 eigenvalue-minimisations  : 10752
 total energy-change (2. order) :-0.1411830E+04  (-0.1378917E+04)
 number of electron     180.0000000 magnetization       6.0000000
 augmentation part      180.0000000 magnetization       6.0000000

 Free energy of the ion-electron system (eV)
  ---------------------------------------------------
  alpha Z        PSCENC =       532.25742704
  Ewald energy   TEWEN  =     -8601.05107233
  -Hartree energ DENC   =     -1903.73857242
  -exchange      EXHF   =         0.00000000
  -V(xc)+E(xc)   XCENC  =      -664.10578080
  PAW double counting   =      8494.55058411    -7650.81563588
  entropy T*S    EENTRO =        -0.00462477
  eigenvalues    EBANDS =      1267.60616957
  atomic energy  EATOM  =      8465.11600846
  ---------------------------------------------------
  free energy    TOTEN  =       -60.18549702 eV

  energy without entropy =      -60.18087225  energy(sigma->0) =      -60.18395543


--------------------------------------------------------------------------------------------------------




--------------------------------------- Iteration      1(   3)  ---------------------------------------


    TRIAL :  cpu time   11.9454: real time   12.7162
    CORREC:  cpu time    0.0046: real time    0.0048
    --------------------------------------------
      LOOP:  cpu time   11.9527: real time   12.7243

 eigenvalue-minimisations  : 16360
 total energy-change (2. order) :-0.1780843E+03  (-0.1597542E+03)
 number of electron     180.0000000 magnetization       6.0000000
 augmentation part      180.0000000 magnetization       6.0000000

 Free energy of the ion-electron system (eV)
  ---------------------------------------------------
  alpha Z        PSCENC =       532.25742704
  Ewald energy   TEWEN  =     -8601.05107233
  -Hartree energ DENC   =     -1903.73857242
  -exchange      EXHF   =         0.00000000
  -V(xc)+E(xc)   XCENC  =      -664.10578080
  PAW double counting   =      8494.55058411    -7650.81563588
  entropy T*S    EENTRO =         0.01917928
  eigenvalues    EBANDS =      1089.49805086
  atomic energy  EATOM  =      8465.11600846
  ---------------------------------------------------
  free energy    TOTEN  =      -238.26981168 eV

  energy without entropy =     -238.28899096  energy(sigma->0) =     -238.27620478


--------------------------------------------------------------------------------------------------------




--------------------------------------- Iteration      1(   4)  ---------------------------------------


    TRIAL :  cpu time   12.4784: real time   12.5136
    CORREC:  cpu time    0.0049: real time    0.0051
    --------------------------------------------
      LOOP:  cpu time   12.4841: real time   12.5221

 eigenvalue-minimisations  : 17480
 total energy-change (2. order) :-0.2844924E+02  (-0.2548742E+02)
 number of electron     180.0000000 magnetization       6.0000000
 augmentation part      180.0000000 magnetization       6.0000000

 Free energy of the ion-electron system (eV)
  ---------------------------------------------------
  alpha Z        PSCENC =       532.25742704
  Ewald energy   TEWEN  =     -8601.05107233
  -Hartree energ DENC   =     -1903.73857242
  -exchange      EXHF   =         0.00000000
  -V(xc)+E(xc)   XCENC  =      -664.10578080
  PAW double counting   =      8494.55058411    -7650.81563588
  entropy T*S    EENTRO =         0.02502445
  eigenvalues    EBANDS =      1061.04296804
  atomic energy  EATOM  =      8465.11600846
  ---------------------------------------------------
  free energy    TOTEN  =      -266.71904932 eV

  energy without entropy =     -266.74407377  energy(sigma->0) =     -266.72739080


--------------------------------------------------------------------------------------------------------




--------------------------------------- Iteration      1(   5)  ---------------------------------------


    TRIAL :  cpu time   12.7604: real time   12.8074
    CORREC:  cpu time    0.0049: real time    0.0051
    --------------------------------------------
      LOOP:  cpu time   12.7661: real time   12.8156

 eigenvalue-minimisations  : 17936
 total energy-change (2. order) :-0.2957619E+01  (-0.2844570E+01)
 number of electron     180.0000000 magnetization       6.0000000
 augmentation part      180.0000000 magnetization       6.0000000

 Free energy of the ion-electron system (eV)
  ---------------------------------------------------
  alpha Z        PSCENC =       532.25742704
  Ewald energy   TEWEN  =     -8601.05107233
  -Hartree energ DENC   =     -1903.73857242
  -exchange      EXHF   =         0.00000000
  -V(xc)+E(xc)   XCENC  =      -664.10578080
  PAW double counting   =      8494.55058411    -7650.81563588
  entropy T*S    EENTRO =         0.02880995
  eigenvalues    EBANDS =      1058.08156338
  atomic energy  EATOM  =      8465.11600846
  ---------------------------------------------------
  free energy    TOTEN  =      -269.67666849 eV

  energy without entropy =     -269.70547844  energy(sigma->0) =     -269.68627181


--------------------------------------------------------------------------------------------------------




--------------------------------------- Iteration      1(   6)  ---------------------------------------


    TRIAL :  cpu time   13.2743: real time   13.3884
    CORREC:  cpu time    0.0050: real time    0.0051
    --------------------------------------------
      LOOP:  cpu time   13.2803: real time   13.3964

 eigenvalue-minimisations  : 17792
 total energy-change (2. order) :-0.2253481E+00  (-0.2209400E+00)
 number of electron     180.0000000 magnetization       6.0000000
 augmentation part      180.0000000 magnetization       6.0000000

 Free energy of the ion-electron system (eV)
  ---------------------------------------------------
  alpha Z        PSCENC =       532.25742704
  Ewald energy   TEWEN  =     -8601.05107233
  -Hartree energ DENC   =     -1903.73857242
  -exchange      EXHF   =         0.00000000
  -V(xc)+E(xc)   XCENC  =      -664.10578080
  PAW double counting   =      8494.55058411    -7650.81563588
  entropy T*S    EENTRO =         0.03007591
  eigenvalues    EBANDS =      1057.85494928
  atomic energy  EATOM  =      8465.11600846
  ---------------------------------------------------
  free energy    TOTEN  =      -269.90201663 eV

  energy without entropy =     -269.93209254  energy(sigma->0) =     -269.91204193


--------------------------------------------------------------------------------------------------------




--------------------------------------- Iteration      1(   7)  ---------------------------------------


    TRIAL :  cpu time   13.0907: real time   13.2762
    CORREC:  cpu time    0.0607: real time    0.0616
    --------------------------------------------
      LOOP:  cpu time   13.1525: real time   13.3412

 eigenvalue-minimisations  : 18264
 total energy-change (2. order) :-0.2416815E-01  (-0.2394177E-01)
 number of electron     180.0000000 magnetization       6.0000000
 augmentation part      180.0000000 magnetization       6.0000000

 Free energy of the ion-electron system (eV)
  ---------------------------------------------------
  alpha Z        PSCENC =       532.25742704
  Ewald energy   TEWEN  =     -8601.05107233
  -Hartree energ DENC   =     -1903.73857242
  -exchange      EXHF   =         0.00000000
  -V(xc)+E(xc)   XCENC  =      -664.10578080
  PAW double counting   =      8494.55058411    -7650.81563588
  entropy T*S    EENTRO =         0.03053287
  eigenvalues    EBANDS =      1057.83032418
  atomic energy  EATOM  =      8465.11600846
  ---------------------------------------------------
  free energy    TOTEN  =      -269.92618477 eV

  energy without entropy =     -269.95671764  energy(sigma->0) =     -269.93636240


--------------------------------------------------------------------------------------------------------




--------------------------------------- Iteration      1(   8)  ---------------------------------------


    TRIAL :  cpu time   12.4229: real time   13.1701
    CORREC:  cpu time    0.0052: real time    0.0053
    CHARGE:  cpu time    0.7137: real time    0.7277
    --------------------------------------------
      LOOP:  cpu time   13.1428: real time   13.9072

 eigenvalue-minimisations  : 17392
 total energy-change (2. order) :-0.1826834E-02  (-0.1814330E-02)
 number of electron     179.9999997 magnetization       4.5285601
 augmentation part       42.8051103 magnetization       2.6030351

 Free energy of the ion-electron system (eV)
  ---------------------------------------------------
  alpha Z        PSCENC =       532.25742704
  Ewald energy   TEWEN  =     -8601.05107233
  -Hartree energ DENC   =     -1903.73857242
  -exchange      EXHF   =         0.00000000
  -V(xc)+E(xc)   XCENC  =      -664.10578080
  PAW double counting   =      8494.55058411    -7650.81563588
  entropy T*S    EENTRO =         0.03066789
  eigenvalues    EBANDS =      1057.82836232
  atomic energy  EATOM  =      8465.11600846
  ---------------------------------------------------
  free energy    TOTEN  =      -269.92801161 eV

  energy without entropy =     -269.95867949  energy(sigma->0) =     -269.93823424


--------------------------------------------------------------------------------------------------------




--------------------------------------- Iteration      1(   9)  ---------------------------------------


    POTLOK:  cpu time    0.2498: real time    0.2498
    SETDIJ:  cpu time    0.3281: real time    0.3281
    TRIAL :  cpu time    4.2776: real time    4.2852
    CORREC:  cpu time    2.0932: real time    2.1177
    CHARGE:  cpu time    0.7098: real time    0.7100
    --------------------------------------------
      LOOP:  cpu time    7.6862: real time    7.7202

 eigenvalue-minimisations  :     0
 total energy-change (2. order) : 0.1999233E+03  (-0.1448309E+03)
 number of electron     179.9999996 magnetization       4.5257674
 augmentation part       55.0728132 magnetization       2.9791234

 Free energy of the ion-electron system (eV)
  ---------------------------------------------------
  alpha Z        PSCENC =       532.25742704
  Ewald energy   TEWEN  =     -8601.05107233
  -Hartree energ DENC   =      -849.05223258
  -exchange      EXHF   =         0.00000000
  -V(xc)+E(xc)   XCENC  =      -694.00140013
  PAW double counting   =     12781.58962464   -11835.41957844
  entropy T*S    EENTRO =         0.03258383
  eigenvalues    EBANDS =       130.52587085
  atomic energy  EATOM  =      8465.11600846
  ---------------------------------------------------
  free energy    TOTEN  =       -70.00468462 eV

  energy without entropy =      -70.03726845  energy(sigma->0) =      -70.01554589


--------------------------------------------------------------------------------------------------------




--------------------------------------- Iteration      1(  10)  ---------------------------------------


    POTLOK:  cpu time    0.2461: real time    0.2461
    SETDIJ:  cpu time    0.3495: real time    0.3495
    TRIAL :  cpu time    4.2326: real time    4.2374
    CORREC:  cpu time    2.0990: real time    2.1007
    CHARGE:  cpu time    0.7224: real time    0.7363
    --------------------------------------------
      LOOP:  cpu time    7.6526: real time    7.6742

 eigenvalue-minimisations  :     0
 total energy-change (2. order) :-0.1430360E+03  (-0.8804434E+01)
 number of electron     179.9999996 magnetization       4.7640245
 augmentation part       58.3191307 magnetization       3.2576646

 Free energy of the ion-electron system (eV)
  ---------------------------------------------------
  alpha Z        PSCENC =       532.25742704
  Ewald energy   TEWEN  =     -8601.05107233
  -Hartree energ DENC   =     -1408.50999691
  -exchange      EXHF   =         0.00000000
  -V(xc)+E(xc)   XCENC  =      -674.48292963
  PAW double counting   =     13778.97519788   -12954.28689566
  entropy T*S    EENTRO =         0.04079266
  eigenvalues    EBANDS =       648.90900268
  atomic energy  EATOM  =      8465.11600846
  ---------------------------------------------------
  free energy    TOTEN  =      -213.04067465 eV

  energy without entropy =     -213.08146731  energy(sigma->0) =     -213.05427220


--------------------------------------------------------------------------------------------------------




--------------------------------------- Iteration      1(  11)  ---------------------------------------


    POTLOK:  cpu time    0.2458: real time    0.2458
    SETDIJ:  cpu time    0.3190: real time    0.3191
    TRIAL :  cpu time    5.0938: real time    5.0964
    CORREC:  cpu time    2.1326: real time    2.1337
    CHARGE:  cpu time    0.7077: real time    0.7078
    --------------------------------------------
      LOOP:  cpu time    8.5004: real time    8.5076

 eigenvalue-minimisations  :     0
 total energy-change (2. order) :-0.8568804E+01  (-0.9006650E+01)
 number of electron     179.9999996 magnetization       4.6303375
 augmentation part       59.0669631 magnetization       3.1591717

 Free energy of the ion-electron system (eV)
  ---------------------------------------------------
  alpha Z        PSCENC =       532.25742704
  Ewald energy   TEWEN  =     -8601.05107233
  -Hartree energ DENC   =     -1603.53883983
  -exchange      EXHF   =         0.00000000
  -V(xc)+E(xc)   XCENC  =      -667.42777387
  PAW double counting   =     14534.09246053   -13741.36940665
  entropy T*S    EENTRO =         0.02498505
  eigenvalues    EBANDS =       860.27092499
  atomic energy  EATOM  =      8465.11600846
  ---------------------------------------------------
  free energy    TOTEN  =      -221.60947901 eV

  energy without entropy =     -221.63446406  energy(sigma->0) =     -221.61780736


--------------------------------------------------------------------------------------------------------




--------------------------------------- Iteration      1(  12)  ---------------------------------------


    POTLOK:  cpu time    0.2458: real time    0.2458
    SETDIJ:  cpu time    0.3314: real time    0.3418
    TRIAL :  cpu time    4.2406: real time    4.3346
    CORREC:  cpu time    2.1561: real time    2.1649
    CHARGE:  cpu time    0.7089: real time    0.7089
    --------------------------------------------
      LOOP:  cpu time    7.6872: real time    7.8017

 eigenvalue-minimisations  :     0
 total energy-change (2. order) :-0.9158316E+01  (-0.4622343E+01)
 number of electron     179.9999996 magnetization       4.6813539
 augmentation part       57.9723588 magnetization       3.1900937

 Free energy of the ion-electron system (eV)
  ---------------------------------------------------
  alpha Z        PSCENC =       532.25742704
  Ewald energy   TEWEN  =     -8601.05107233
  -Hartree energ DENC   =     -1711.26351185
  -exchange      EXHF   =         0.00000000
  -V(xc)+E(xc)   XCENC  =      -664.16323880
  PAW double counting   =     14415.53283855   -13614.49451162
  entropy T*S    EENTRO =         0.02782715
  eigenvalues    EBANDS =       947.27328014
  atomic energy  EATOM  =      8465.11600846
  ---------------------------------------------------
  free energy    TOTEN  =      -230.76779537 eV

  energy without entropy =     -230.79562252  energy(sigma->0) =     -230.77707109


--------------------------------------------------------------------------------------------------------




--------------------------------------- Iteration      1(  13)  ---------------------------------------


    POTLOK:  cpu time    0.2467: real time    0.2468
    SETDIJ:  cpu time    0.3193: real time    0.3193
    TRIAL :  cpu time    4.2310: real time    4.3499
    CORREC:  cpu time    2.0947: real time    2.0960
    CHARGE:  cpu time    0.7905: real time    0.7905
    --------------------------------------------
      LOOP:  cpu time    7.6850: real time    7.8073

 eigenvalue-minimisations  :     0
 total energy-change (2. order) :-0.4576855E+01  (-0.7283987E+00)
 number of electron     179.9999996 magnetization       4.5310769
 augmentation part       57.3751285 magnetization       3.1460318

 Free energy of the ion-electron system (eV)
  ---------------------------------------------------
  alpha Z        PSCENC =       532.25742704
  Ewald energy   TEWEN  =     -8601.05107233
  -Hartree energ DENC   =     -1687.72369978
  -exchange      EXHF   =         0.00000000
  -V(xc)+E(xc)   XCENC  =      -665.35607472
  PAW double counting   =     14189.07714522   -13364.94202894
  entropy T*S    EENTRO =         0.02446897
  eigenvalues    EBANDS =       897.24981724
  atomic energy  EATOM  =      8465.11600846
  ---------------------------------------------------
  free energy    TOTEN  =      -235.34465067 eV

  energy without entropy =     -235.36911964  energy(sigma->0) =     -235.35280699


--------------------------------------------------------------------------------------------------------




--------------------------------------- Iteration      1(  14)  ---------------------------------------


    POTLOK:  cpu time    0.2462: real time    0.2462
    SETDIJ:  cpu time    0.2872: real time    0.3749
    TRIAL :  cpu time    4.2382: real time    4.2514
    CORREC:  cpu time    2.4501: real time    3.1123
    CHARGE:  cpu time    0.7105: real time    0.7113
    --------------------------------------------
      LOOP:  cpu time    7.9361: real time    8.7018

 eigenvalue-minimisations  :     0
 total energy-change (2. order) :-0.7226254E+00  (-0.8643910E+00)
 number of electron     179.9999996 magnetization       4.5874295
 augmentation part       57.3130220 magnetization       3.0884088

 Free energy of the ion-electron system (eV)
  ---------------------------------------------------
  alpha Z        PSCENC =       532.25742704
  Ewald energy   TEWEN  =     -8601.05107233
  -Hartree energ DENC   =     -1655.36540179
  -exchange      EXHF   =         0.00000000
  -V(xc)+E(xc)   XCENC  =      -666.56853931
  PAW double counting   =     13888.25534764   -13054.82738025
  entropy T*S    EENTRO =         0.02341174
  eigenvalues    EBANDS =       856.09186551
  atomic energy  EATOM  =      8465.11600846
  ---------------------------------------------------
  free energy    TOTEN  =      -236.06727608 eV

  energy without entropy =     -236.09068781  energy(sigma->0) =     -236.07507999


--------------------------------------------------------------------------------------------------------




--------------------------------------- Iteration      1(  15)  ---------------------------------------


    POTLOK:  cpu time    0.2458: real time    0.2458
    SETDIJ:  cpu time    0.3490: real time    0.3490
    TRIAL :  cpu time    4.2017: real time    4.2054
    CORREC:  cpu time    2.1510: real time    2.1913
    CHARGE:  cpu time    0.7121: real time    0.7124
    --------------------------------------------
      LOOP:  cpu time    7.6620: real time    7.7063

 eigenvalue-minimisations  :     0
 total energy-change (2. order) :-0.8640707E+00  (-0.3603238E+00)
 number of electron     179.9999996 magnetization       4.5928622
 augmentation part       57.8846857 magnetization       3.0981605

 Free energy of the ion-electron system (eV)
  ---------------------------------------------------
  alpha Z        PSCENC =       532.25742704
  Ewald energy   TEWEN  =     -8601.05107233
  -Hartree energ DENC   =     -1640.23151441
  -exchange      EXHF   =         0.00000000
  -V(xc)+E(xc)   XCENC  =      -667.07053282
  PAW double counting   =     13298.25506013   -12460.36694607
  entropy T*S    EENTRO =         0.02267094
  eigenvalues    EBANDS =       836.13681146
  atomic energy  EATOM  =      8465.11600846
  ---------------------------------------------------
  free energy    TOTEN  =      -236.93134681 eV

  energy without entropy =     -236.95401775  energy(sigma->0) =     -236.93890379


--------------------------------------------------------------------------------------------------------




--------------------------------------- Iteration      1(  16)  ---------------------------------------


    POTLOK:  cpu time    0.2461: real time    0.2461
    SETDIJ:  cpu time    0.3362: real time    0.3362
    TRIAL :  cpu time    4.2384: real time    4.2818
    CORREC:  cpu time    2.1669: real time    2.1683
    CHARGE:  cpu time    0.7142: real time    0.7144
    --------------------------------------------
      LOOP:  cpu time    7.7038: real time    7.7497

 eigenvalue-minimisations  :     0
 total energy-change (2. order) :-0.3625821E+00  (-0.1148459E+00)
 number of electron     179.9999996 magnetization       4.4948396
 augmentation part       58.1157785 magnetization       3.0722801

 Free energy of the ion-electron system (eV)
  ---------------------------------------------------
  alpha Z        PSCENC =       532.25742704
  Ewald energy   TEWEN  =     -8601.05107233
  -Hartree energ DENC   =     -1663.59039305
  -exchange      EXHF   =         0.00000000
  -V(xc)+E(xc)   XCENC  =      -666.14348102
  PAW double counting   =     13101.27266553   -12268.42967326
  entropy T*S    EENTRO =         0.02067799
  eigenvalues    EBANDS =       863.25191880
  atomic energy  EATOM  =      8465.11600846
  ---------------------------------------------------
  free energy    TOTEN  =      -237.29392888 eV

  energy without entropy =     -237.31460687  energy(sigma->0) =     -237.30082154


--------------------------------------------------------------------------------------------------------




--------------------------------------- Iteration      1(  17)  ---------------------------------------


    POTLOK:  cpu time    0.2632: real time    0.2719
    SETDIJ:  cpu time    0.3178: real time    0.3180
    TRIAL :  cpu time    4.2081: real time    4.2420
    CORREC:  cpu time    2.1302: real time    2.1316
    CHARGE:  cpu time    0.7341: real time    0.7344
    --------------------------------------------
      LOOP:  cpu time    7.6545: real time    7.7002

 eigenvalue-minimisations  :     0
 total energy-change (2. order) :-0.1164305E+00  (-0.2126293E+00)
 number of electron     179.9999996 magnetization       4.4548325
 augmentation part       58.1822038 magnetization       3.0847993

 Free energy of the ion-electron system (eV)
  ---------------------------------------------------
  alpha Z        PSCENC =       532.25742704
  Ewald energy   TEWEN  =     -8601.05107233
  -Hartree energ DENC   =     -1673.68979706
  -exchange      EXHF   =         0.00000000
  -V(xc)+E(xc)   XCENC  =      -665.71533620
  PAW double counting   =     13057.59211669   -12227.08282882
  entropy T*S    EENTRO =         0.02050289
  eigenvalues    EBANDS =       875.14244485
  atomic energy  EATOM  =      8465.11600846
  ---------------------------------------------------
  free energy    TOTEN  =      -237.41035938 eV

  energy without entropy =     -237.43086227  energy(sigma->0) =     -237.41719368


--------------------------------------------------------------------------------------------------------




--------------------------------------- Iteration      1(  18)  ---------------------------------------


    POTLOK:  cpu time    0.2462: real time    0.2462
    SETDIJ:  cpu time    0.3191: real time    0.3191
    TRIAL :  cpu time    4.2284: real time    4.2464
    CORREC:  cpu time    2.1365: real time    2.1379
    CHARGE:  cpu time    0.7073: real time    0.7074
    --------------------------------------------
      LOOP:  cpu time    7.6400: real time    7.6596

 eigenvalue-minimisations  :     0
 total energy-change (2. order) :-0.2126674E+00  (-0.6302400E-01)
 number of electron     179.9999996 magnetization       4.4548013
 augmentation part       57.9725286 magnetization       3.0787008

 Free energy of the ion-electron system (eV)
  ---------------------------------------------------
  alpha Z        PSCENC =       532.25742704
  Ewald energy   TEWEN  =     -8601.05107233
  -Hartree energ DENC   =     -1674.14642429
  -exchange      EXHF   =         0.00000000
  -V(xc)+E(xc)   XCENC  =      -665.43112628
  PAW double counting   =     12998.53925927   -12168.86701660
  entropy T*S    EENTRO =         0.02084442
  eigenvalues    EBANDS =       875.93941502
  atomic energy  EATOM  =      8465.11600846
  ---------------------------------------------------
  free energy    TOTEN  =      -237.62302682 eV

  energy without entropy =     -237.64387125  energy(sigma->0) =     -237.62997496


--------------------------------------------------------------------------------------------------------




--------------------------------------- Iteration      1(  19)  ---------------------------------------


    POTLOK:  cpu time    0.2749: real time    0.2749
    SETDIJ:  cpu time    0.3137: real time    0.3137
    TRIAL :  cpu time    4.8605: real time    4.8716
    CORREC:  cpu time    2.0438: real time    2.1365
    CHARGE:  cpu time    0.7243: real time    0.7385
    --------------------------------------------
      LOOP:  cpu time    8.2442: real time    8.3629

 eigenvalue-minimisations  :     0
 total energy-change (2. order) :-0.6287782E-01  (-0.5174716E-01)
 number of electron     179.9999996 magnetization       4.4037190
 augmentation part       57.7999038 magnetization       3.0641616

 Free energy of the ion-electron system (eV)
  ---------------------------------------------------
  alpha Z        PSCENC =       532.25742704
  Ewald energy   TEWEN  =     -8601.05107233
  -Hartree energ DENC   =     -1663.19655491
  -exchange      EXHF   =         0.00000000
  -V(xc)+E(xc)   XCENC  =      -665.73208677
  PAW double counting   =     12976.61650100   -12144.76535578
  entropy T*S    EENTRO =         0.02137061
  eigenvalues    EBANDS =       863.04838423
  atomic energy  EATOM  =      8465.11600846
  ---------------------------------------------------
  free energy    TOTEN  =      -237.68590464 eV

  energy without entropy =     -237.70727526  energy(sigma->0) =     -237.69302818


--------------------------------------------------------------------------------------------------------




--------------------------------------- Iteration      1(  20)  ---------------------------------------


    POTLOK:  cpu time    0.2461: real time    0.2461
    SETDIJ:  cpu time    0.3219: real time    0.3220
    TRIAL :  cpu time    4.2366: real time    4.2471
    CORREC:  cpu time    2.0381: real time    2.1192
    CHARGE:  cpu time    0.7098: real time    0.7102
    --------------------------------------------
      LOOP:  cpu time    7.5607: real time    7.6539

 eigenvalue-minimisations  :     0
 total energy-change (2. order) :-0.5175971E-01  (-0.4985483E-01)
 number of electron     179.9999996 magnetization       4.4081456
 augmentation part       57.8720233 magnetization       3.0671464

 Free energy of the ion-electron system (eV)
  ---------------------------------------------------
  alpha Z        PSCENC =       532.25742704
  Ewald energy   TEWEN  =     -8601.05107233
  -Hartree energ DENC   =     -1656.09184317
  -exchange      EXHF   =         0.00000000
  -V(xc)+E(xc)   XCENC  =      -665.90827672
  PAW double counting   =     12969.73157089   -12136.30489007
  entropy T*S    EENTRO =         0.02252268
  eigenvalues    EBANDS =       854.49204093
  atomic energy  EATOM  =      8465.11600846
  ---------------------------------------------------
  free energy    TOTEN  =      -237.73766436 eV

  energy without entropy =     -237.76018703  energy(sigma->0) =     -237.74517192


--------------------------------------------------------------------------------------------------------




--------------------------------------- Iteration      1(  21)  ---------------------------------------


    POTLOK:  cpu time    0.2461: real time    0.2461
    SETDIJ:  cpu time    0.3441: real time    0.3442
    TRIAL :  cpu time    4.2146: real time    4.3417
    CORREC:  cpu time    2.0867: real time    2.1041
    CHARGE:  cpu time    0.7132: real time    0.7133
    --------------------------------------------
      LOOP:  cpu time    7.6077: real time    7.7525

 eigenvalue-minimisations  :     0
 total energy-change (2. order) :-0.4987077E-01  (-0.1118943E-01)
 number of electron     179.9999996 magnetization       4.3841762
 augmentation part       57.9280457 magnetization       3.0568518

 Free energy of the ion-electron system (eV)
  ---------------------------------------------------
  alpha Z        PSCENC =       532.25742704
  Ewald energy   TEWEN  =     -8601.05107233
  -Hartree energ DENC   =     -1662.51247892
  -exchange      EXHF   =         0.00000000
  -V(xc)+E(xc)   XCENC  =      -665.59640648
  PAW double counting   =     12990.36987532   -12158.17800395
  entropy T*S    EENTRO =         0.02255478
  eigenvalues    EBANDS =       861.78459306
  atomic energy  EATOM  =      8465.11600846
  ---------------------------------------------------
  free energy    TOTEN  =      -237.78753512 eV

  energy without entropy =     -237.81008990  energy(sigma->0) =     -237.79505338


--------------------------------------------------------------------------------------------------------




--------------------------------------- Iteration      1(  22)  ---------------------------------------


    POTLOK:  cpu time    0.2462: real time    0.2462
    SETDIJ:  cpu time    0.3246: real time    0.3245
    TRIAL :  cpu time    4.2598: real time    4.9776
    CORREC:  cpu time    2.0820: real time    2.0836
    CHARGE:  cpu time    0.7120: real time    0.7122
    --------------------------------------------
      LOOP:  cpu time    7.6271: real time    8.3476

 eigenvalue-minimisations  :     0
 total energy-change (2. order) :-0.1121164E-01  (-0.1436877E-01)
 number of electron     179.9999996 magnetization       4.3694883
 augmentation part       58.0070304 magnetization       3.0544111

 Free energy of the ion-electron system (eV)
  ---------------------------------------------------
  alpha Z        PSCENC =       532.25742704
  Ewald energy   TEWEN  =     -8601.05107233
  -Hartree energ DENC   =     -1666.01898474
  -exchange      EXHF   =         0.00000000
  -V(xc)+E(xc)   XCENC  =      -665.45693503
  PAW double counting   =     12998.04516350   -12166.54089400
  entropy T*S    EENTRO =         0.02318364
  eigenvalues    EBANDS =       865.82798557
  atomic energy  EATOM  =      8465.11600846
  ---------------------------------------------------
  free energy    TOTEN  =      -237.79874676 eV

  energy without entropy =     -237.82193040  energy(sigma->0) =     -237.80647464


--------------------------------------------------------------------------------------------------------




--------------------------------------- Iteration      1(  23)  ---------------------------------------


    POTLOK:  cpu time    0.2453: real time    0.2458
    SETDIJ:  cpu time    0.3242: real time    0.3242
    TRIAL :  cpu time    4.2988: real time    4.3641
    CORREC:  cpu time    2.1124: real time    2.1395
    CHARGE:  cpu time    0.7108: real time    0.7112
    --------------------------------------------
      LOOP:  cpu time    7.6948: real time    7.7897

 eigenvalue-minimisations  :     0
 total energy-change (2. order) :-0.1435507E-01  (-0.1412541E-01)
 number of electron     179.9999996 magnetization       4.3630482
 augmentation part       57.9736590 magnetization       3.0452104

 Free energy of the ion-electron system (eV)
  ---------------------------------------------------
  alpha Z        PSCENC =       532.25742704
  Ewald energy   TEWEN  =     -8601.05107233
  -Hartree energ DENC   =     -1670.43478136
  -exchange      EXHF   =         0.00000000
  -V(xc)+E(xc)   XCENC  =      -665.26319646
  PAW double counting   =     13003.34930355   -12172.70855501
  entropy T*S    EENTRO =         0.02411164
  eigenvalues    EBANDS =       870.89858064
  atomic energy  EATOM  =      8465.11600846
  ---------------------------------------------------
  free energy    TOTEN  =      -237.81310183 eV

  energy without entropy =     -237.83721347  energy(sigma->0) =     -237.82113905


--------------------------------------------------------------------------------------------------------




--------------------------------------- Iteration      1(  24)  ---------------------------------------


    POTLOK:  cpu time    0.2463: real time    0.2463
    SETDIJ:  cpu time    0.3736: real time    0.3736
    TRIAL :  cpu time    4.2377: real time    4.2489
    CORREC:  cpu time    2.0955: real time    2.1050
    CHARGE:  cpu time    0.7317: real time    0.7316
    --------------------------------------------
      LOOP:  cpu time    7.6876: real time    7.7091

 eigenvalue-minimisations  :     0
 total energy-change (2. order) :-0.1412644E-01  (-0.8283356E-02)
 number of electron     179.9999996 magnetization       4.3546829
 augmentation part       57.9073799 magnetization       3.0391516

 Free energy of the ion-electron system (eV)
  ---------------------------------------------------
  alpha Z        PSCENC =       532.25742704
  Ewald energy   TEWEN  =     -8601.05107233
  -Hartree energ DENC   =     -1668.55873250
  -exchange      EXHF   =         0.00000000
  -V(xc)+E(xc)   XCENC  =      -665.28100868
  PAW double counting   =     12996.75121424   -12165.62284200
  entropy T*S    EENTRO =         0.02450105
  eigenvalues    EBANDS =       868.53766584
  atomic energy  EATOM  =      8465.11600846
  ---------------------------------------------------
  free energy    TOTEN  =      -237.82722828 eV

  energy without entropy =     -237.85172933  energy(sigma->0) =     -237.83539529


--------------------------------------------------------------------------------------------------------




--------------------------------------- Iteration      1(  25)  ---------------------------------------


    POTLOK:  cpu time    0.2534: real time    0.2899
    SETDIJ:  cpu time    0.3131: real time    0.3172
    TRIAL :  cpu time    4.2312: real time    4.2335
    CORREC:  cpu time    2.0974: real time    2.0991
    CHARGE:  cpu time    0.7399: real time    0.7401
    --------------------------------------------
      LOOP:  cpu time    7.6384: real time    7.6858

 eigenvalue-minimisations  :     0
 total energy-change (2. order) :-0.8287707E-02  (-0.9380617E-02)
 number of electron     179.9999996 magnetization       4.3474561
 augmentation part       57.9264488 magnetization       3.0420264

 Free energy of the ion-electron system (eV)
  ---------------------------------------------------
  alpha Z        PSCENC =       532.25742704
  Ewald energy   TEWEN  =     -8601.05107233
  -Hartree energ DENC   =     -1664.72355424
  -exchange      EXHF   =         0.00000000
  -V(xc)+E(xc)   XCENC  =      -665.36973199
  PAW double counting   =     12988.38179807   -12156.41064789
  entropy T*S    EENTRO =         0.02488676
  eigenvalues    EBANDS =       863.93975585
  atomic energy  EATOM  =      8465.11600846
  ---------------------------------------------------
  free energy    TOTEN  =      -237.83551598 eV

  energy without entropy =     -237.86040274  energy(sigma->0) =     -237.84381157


--------------------------------------------------------------------------------------------------------




--------------------------------------- Iteration      1(  26)  ---------------------------------------


    POTLOK:  cpu time    0.2465: real time    0.2465
    SETDIJ:  cpu time    0.3140: real time    0.3291
    TRIAL :  cpu time    4.1942: real time    4.1965
    CORREC:  cpu time    2.8814: real time    2.8834
    CHARGE:  cpu time    0.7235: real time    0.7237
    --------------------------------------------
      LOOP:  cpu time    8.3611: real time    8.3822

 eigenvalue-minimisations  :     0
 total energy-change (2. order) :-0.9351463E-02  (-0.2972249E-02)
 number of electron     179.9999996 magnetization       4.3443252
 augmentation part       57.9707111 magnetization       3.0445808

 Free energy of the ion-electron system (eV)
  ---------------------------------------------------
  alpha Z        PSCENC =       532.25742704
  Ewald energy   TEWEN  =     -8601.05107233
  -Hartree energ DENC   =     -1665.09630763
  -exchange      EXHF   =         0.00000000
  -V(xc)+E(xc)   XCENC  =      -665.27245815
  PAW double counting   =     12987.56446657   -12155.69266059
  entropy T*S    EENTRO =         0.02501939
  eigenvalues    EBANDS =       864.30484243
  atomic energy  EATOM  =      8465.11600846
  ---------------------------------------------------
[...]
  8.439  14.381   0.000   0.000   0.000   0.001   0.001   0.001
 14.381  24.507   0.000   0.001   0.000   0.001   0.002   0.001
  0.000   0.000   1.996  -0.000  -0.000   5.749  -0.000  -0.000
  0.000   0.001  -0.000   1.996  -0.000  -0.000   5.747  -0.000
  0.000   0.000  -0.000  -0.000   1.996  -0.000  -0.000   5.749
  0.001   0.001   5.749  -0.000  -0.000  16.475  -0.000  -0.001
  0.001   0.002  -0.000   5.747  -0.000  -0.000  16.471  -0.000
  0.001   0.001  -0.000  -0.000   5.749  -0.001  -0.000  16.475
 total augmentation occupancy for first ion, spin component:           1
  4.376  -1.249  -0.003   0.001  -0.003   0.000  -0.000   0.000
 -1.249   0.376  -0.000  -0.000  -0.000  -0.000  -0.000  -0.000
 -0.003  -0.000   1.413  -0.001   0.007  -0.101   0.000  -0.000
  0.001  -0.000  -0.001   1.507  -0.001   0.000  -0.102   0.000
 -0.003  -0.000   0.007  -0.001   1.413  -0.000   0.000  -0.101
  0.000  -0.000  -0.101   0.000  -0.000   0.008  -0.000  -0.000
 -0.000  -0.000   0.000  -0.102   0.000  -0.000   0.007  -0.000
  0.000  -0.000  -0.000   0.000  -0.101  -0.000  -0.000   0.008
 total augmentation occupancy for first ion, spin component:           2
 -0.058   0.018  -0.017  -0.073  -0.017   0.001   0.002   0.001
  0.018  -0.006  -0.002  -0.016  -0.002   0.000   0.002   0.000
 -0.017  -0.002  -0.025   0.022  -0.013   0.002  -0.000   0.000
 -0.073  -0.016   0.022  -0.035   0.022  -0.000   0.002  -0.000
 -0.017  -0.002  -0.013   0.022  -0.025   0.000  -0.000   0.002
  0.001   0.000   0.002  -0.000   0.000  -0.000  -0.000   0.000
  0.002   0.002  -0.000   0.002  -0.000  -0.000  -0.000  -0.000
  0.001   0.000   0.000  -0.000   0.002   0.000  -0.000  -0.000


------------------------ aborting loop because EDIFF is reached ----------------------------------------


 


 total charge     
 
# of ion       s       p       d       tot
------------------------------------------
    1        0.406   0.428   0.000   0.834
    2        0.405   0.428   0.000   0.834
    3        0.405   0.428   0.000   0.834
    4        0.405   0.428   0.000   0.833
    5        0.405   0.427   0.000   0.832
    6        0.405   0.427   0.000   0.832
    7        0.405   0.428   0.000   0.833
    8        0.405   0.428   0.000   0.834
    9        0.405   0.428   0.000   0.834
   10        0.406   0.428   0.000   0.834
   11        0.405   0.427   0.000   0.832
   12        0.405   0.427   0.000   0.832
   13        0.405   0.427   0.000   0.833
   14        0.405   0.427   0.000   0.832
   15        0.405   0.427   0.000   0.832
   16        0.405   0.427   0.000   0.833
   17        0.405   0.427   0.000   0.833
   18        0.405   0.427   0.000   0.833
   19        0.334   0.345   5.146   5.825
   20        0.335   0.352   5.141   5.828
   21        0.334   0.354   5.126   5.814
   22        0.335   0.358   5.092   5.784
   23        0.334   0.354   5.126   5.814
   24        0.335   0.358   5.092   5.784
   25        0.333   0.355   5.130   5.819
   26        0.334   0.353   5.155   5.842
   27        0.334   0.351   5.132   5.817
   28        0.333   0.353   5.139   5.826
   29        0.334   0.351   5.136   5.822
   30        0.333   0.353   5.130   5.815
   31        0.333   0.355   5.130   5.819
   32        0.334   0.353   5.155   5.842
   33        0.334   0.351   5.136   5.822
   34        0.333   0.353   5.130   5.815
   35        0.334   0.351   5.132   5.817
   36        0.333   0.353   5.139   5.826
--------------------------------------------------
tot         13.305  14.050  92.368 119.723
 


 magnetization (x)
 
# of ion       s       p       d       tot
------------------------------------------
    1       -0.004  -0.008   0.000  -0.012
    2       -0.004  -0.010   0.000  -0.014
    3       -0.004  -0.009   0.000  -0.013
    4       -0.004  -0.009   0.000  -0.013
    5       -0.001  -0.001   0.000  -0.002
    6       -0.001  -0.001   0.000  -0.002
    7       -0.004  -0.009   0.000  -0.013
    8       -0.004  -0.009   0.000  -0.013
    9       -0.004  -0.010   0.000  -0.014
   10       -0.004  -0.008   0.000  -0.012
   11       -0.001  -0.001   0.000  -0.002
   12       -0.001  -0.001   0.000  -0.002
   13       -0.001  -0.000   0.000  -0.001
   14       -0.001  -0.000   0.000  -0.001
   15       -0.001  -0.000   0.000  -0.001
   16       -0.001  -0.000   0.000  -0.001
   17        0.001  -0.000   0.000   0.000
   18        0.001  -0.000   0.000   0.000
   19        0.022   0.010   2.368   2.400
   20        0.029   0.025   2.089   2.144
   21        0.013   0.025   2.311   2.349
   22       -0.022  -0.027  -2.433  -2.481
   23        0.013   0.025   2.311   2.349
   24       -0.022  -0.027  -2.433  -2.481
   25        0.013   0.026   2.316   2.355
   26       -0.023  -0.026  -2.412  -2.460
   27        0.016   0.017   2.344   2.378
   28       -0.011  -0.014  -2.301  -2.325
   29        0.016   0.017   2.337   2.371
   30       -0.011  -0.013  -2.303  -2.328
   31        0.013   0.026   2.316   2.355
   32       -0.023  -0.026  -2.412  -2.460
   33        0.016   0.017   2.337   2.371
   34       -0.011  -0.013  -2.303  -2.328
   35        0.016   0.017   2.344   2.378
   36       -0.011  -0.014  -2.301  -2.325
--------------------------------------------------
tot         -0.001  -0.032   4.174   4.141
 
    FORLOC:  cpu time    0.0283: real time    0.0283
    FORNL :  cpu time    7.6114: real time    7.7254
    STRESS:  cpu time   11.5674: real time   11.6526
    FORCOR:  cpu time    0.2667: real time    0.2668
    OFIELD:  cpu time    0.0016: real time    0.0016

  FORCE on cell =-STRESS in cart. coord.  units (eV):
  Direction    XX          YY          ZZ          XY          YZ          ZX
  --------------------------------------------------------------------------------------
  Alpha Z   532.25743   532.25743   532.25743
  Ewald   -2702.40749 -2702.40749 -3196.26924    -0.00000    -0.00000    -0.00000
  Hartree   724.13724   724.13724   218.25790    -0.00000    -0.00000    -0.00000
  E(xc)    -761.37019  -761.37019  -759.24114    -0.00000     0.00000    -0.00000
  Local     241.62458   241.62458  1277.62982    -0.00000     0.00000    -0.00000
  n-local  -114.11987  -111.74432  -116.04419     0.57870    -0.15803    -0.76310
  augment   524.48926   524.48926   509.29504     0.00000     0.00001     0.00001
  Kinetic  1555.50748  1564.35421  1531.92618    -2.72068     1.62791     2.56518
  Fock        0.00000     0.00000     0.00000     0.00000     0.00000     0.00000
  -------------------------------------------------------------------------------------
  Total       5.72958     5.72958    -2.18821    -0.00000    -0.00000     0.00000
  in kB      19.39636    19.39636    -7.40775    -0.00000    -0.00000     0.00000
  external pressure =       10.46 kB  Pullay stress =        0.00 kB


 VOLUME and BASIS-vectors are now :
 -----------------------------------------------------------------------------
  energy-cutoff  :      404.80
  volume of cell :      473.27
      direct lattice vectors                 reciprocal lattice vectors
     8.250148166  0.000000000  0.000000000     0.121209944  0.000000000  0.000000000
     0.000000000  8.250148166  0.000000000     0.000000000  0.121209944  0.000000000
     0.000000000  0.000000000  6.953274261     0.000000000  0.000000000  0.143817137

  length of vectors
     8.250148166  8.250148166  6.953274261     0.121209944  0.121209944  0.143817137


 FORCES acting on ions:
    Electron-Ion                     Ewald-Force                    Non-Local-Force
 -----------------------------------------------------------------------------------------------
   -.703E-01 -.703E-01 0.298E-01   -.239E-08 -.239E-08 0.411E-08   0.734E-01 0.734E-01 0.422E-02
   -.703E-01 -.703E-01 -.298E-01   -.239E-08 -.239E-08 0.411E-08   0.734E-01 0.734E-01 -.422E-02
   -.703E-01 0.703E-01 0.298E-01   -.239E-08 -.802E-09 0.411E-08   0.734E-01 -.734E-01 0.422E-02
   -.703E-01 0.703E-01 -.298E-01   -.239E-08 -.802E-09 0.411E-08   0.734E-01 -.734E-01 -.422E-02
   0.723E-03 -.328E-08 0.897E-02   -.239E-08 0.631E-08 0.411E-08   0.420E-02 0.000E+00 -.317E-03
   0.723E-03 -.328E-08 -.897E-02   -.239E-08 0.631E-08 0.411E-08   0.420E-02 0.122E-18 0.317E-03
   0.703E-01 -.703E-01 0.298E-01   -.802E-09 -.239E-08 0.411E-08   -.734E-01 0.734E-01 0.422E-02
   0.703E-01 -.703E-01 -.298E-01   -.802E-09 -.239E-08 0.411E-08   -.734E-01 0.734E-01 -.422E-02
   0.703E-01 0.703E-01 0.298E-01   -.802E-09 -.802E-09 0.411E-08   -.734E-01 -.734E-01 0.422E-02
   0.703E-01 0.703E-01 -.298E-01   -.802E-09 -.802E-09 0.411E-08   -.734E-01 -.734E-01 -.422E-02
   -.723E-03 -.328E-08 0.897E-02   -.802E-09 0.631E-08 0.411E-08   -.420E-02 -.244E-18 -.317E-03
   -.723E-03 -.328E-08 -.897E-02   -.802E-09 0.631E-08 0.411E-08   -.420E-02 0.163E-18 0.317E-03
   -.328E-08 0.723E-03 0.897E-02   0.631E-08 -.239E-08 0.411E-08   0.108E-18 0.420E-02 -.317E-03
   -.328E-08 0.723E-03 -.897E-02   0.631E-08 -.239E-08 0.411E-08   0.542E-19 0.420E-02 0.317E-03
   -.328E-08 -.723E-03 0.897E-02   0.631E-08 -.802E-09 0.411E-08   0.542E-19 -.420E-02 -.317E-03
   -.328E-08 -.723E-03 -.897E-02   0.631E-08 -.802E-09 0.411E-08   -.108E-18 -.420E-02 0.317E-03
   -.329E-08 -.329E-08 -.298E-01   0.631E-08 0.631E-08 0.411E-08   -.163E-18 0.217E-18 -.304E-01
   -.329E-08 -.329E-08 0.298E-01   0.631E-08 0.631E-08 0.411E-08   0.163E-18 -.759E-18 0.304E-01
   0.477E-08 0.477E-08 -.224E-08   -.169E-07 -.169E-07 -.411E-08   -.496E-23 0.000E+00 0.000E+00
   0.470E-08 0.470E-08 -.210E-08   -.169E-07 -.169E-07 -.411E-08   0.000E+00 0.000E+00 0.000E+00
   0.490E-08 0.827E-01 -.240E-08   -.169E-07 0.802E-09 -.411E-08   -.217E-18 -.293E-01 -.260E-17
   0.493E-08 0.341E+00 -.241E-08   -.169E-07 0.802E-09 -.411E-08   0.000E+00 -.165E+00 0.217E-18
   0.490E-08 -.827E-01 -.240E-08   -.169E-07 0.130E-07 -.411E-08   0.651E-18 0.293E-01 -.867E-18
   0.493E-08 -.341E+00 -.241E-08   -.169E-07 0.130E-07 -.411E-08   0.434E-18 0.165E+00 0.000E+00
   0.827E-01 0.490E-08 -.240E-08   0.802E-09 -.169E-07 -.411E-08   -.293E-01 -.217E-18 0.000E+00
   0.341E+00 0.493E-08 -.241E-08   0.802E-09 -.169E-07 -.411E-08   -.165E+00 -.130E-17 -.108E-18
   -.567E-01 -.567E-01 -.238E-08   0.802E-09 0.802E-09 -.411E-08   0.473E-01 0.473E-01 0.434E-18
   -.106E+00 -.106E+00 -.239E-08   0.802E-09 0.802E-09 -.411E-08   0.131E+00 0.131E+00 -.434E-18
   -.567E-01 0.567E-01 -.238E-08   0.802E-09 0.130E-07 -.411E-08   0.473E-01 -.473E-01 0.217E-18
   -.106E+00 0.106E+00 -.239E-08   0.802E-09 0.130E-07 -.411E-08   0.131E+00 -.131E+00 -.651E-18
   -.827E-01 0.489E-08 -.239E-08   0.130E-07 -.169E-07 -.411E-08   0.293E-01 -.108E-18 0.000E+00
   -.341E+00 0.492E-08 -.240E-08   0.130E-07 -.169E-07 -.411E-08   0.165E+00 0.000E+00 -.108E-18
   0.567E-01 -.567E-01 -.237E-08   0.130E-07 0.802E-09 -.411E-08   -.473E-01 0.473E-01 0.244E-18
   0.106E+00 -.106E+00 -.239E-08   0.130E-07 0.802E-09 -.411E-08   -.131E+00 0.131E+00 -.651E-18
   0.567E-01 0.567E-01 -.237E-08   0.130E-07 0.130E-07 -.411E-08   -.473E-01 -.473E-01 -.434E-18
   0.106E+00 0.106E+00 -.239E-08   0.130E-07 0.130E-07 -.411E-08   -.131E+00 -.131E+00 0.000E+00
 -----------------------------------------------------------------------------------------------
   -.268E-07 -.269E-07 -.793E-07   -.197E-14 0.275E-13 0.265E-14   0.278E-16 -.833E-16 -.821E-17
 
 
 POSITION                                       TOTAL-FORCE (eV/Angst)
 -----------------------------------------------------------------------------------
      0.00000      0.00000      0.00000        -0.003378     -0.003378      0.032396
      0.00000      0.00000      3.47664        -0.003378     -0.003378     -0.032396
      0.00000      2.75005      0.00000        -0.003378      0.003378      0.032396
      0.00000      2.75005      3.47664        -0.003378      0.003378     -0.032396
      0.00000      5.50010      0.00000         0.005296     -0.000000      0.008665
      0.00000      5.50010      3.47664         0.005296     -0.000000     -0.008665
      2.75005      0.00000      0.00000         0.003378     -0.003378      0.032396
      2.75005      0.00000      3.47664         0.003378     -0.003378     -0.032396
      2.75005      2.75005      0.00000         0.003378      0.003378      0.032396
      2.75005      2.75005      3.47664         0.003378      0.003378     -0.032396
      2.75005      5.50010      0.00000        -0.005296     -0.000000      0.008665
      2.75005      5.50010      3.47664        -0.005296     -0.000000     -0.008665
      5.50010      0.00000      0.00000        -0.000000      0.005296      0.008665
      5.50010      0.00000      3.47664        -0.000000      0.005296     -0.008665
      5.50010      2.75005      0.00000        -0.000000     -0.005296      0.008665
      5.50010      2.75005      3.47664        -0.000000     -0.005296     -0.008665
      5.50010      5.50010      0.00000        -0.000000     -0.000000     -0.058000
      5.50010      5.50010      3.47664        -0.000000     -0.000000      0.058000
      1.37502      1.37502      1.73832        -0.000000     -0.000000     -0.000000
      1.37502      1.37502      5.21496        -0.000000     -0.000000     -0.000000
      1.37502      4.12507      1.73832        -0.000000      0.052883     -0.000000
      1.37502      4.12507      5.21496        -0.000000      0.179984     -0.000000
      1.37502      6.87512      1.73832        -0.000000     -0.052883     -0.000000
      1.37502      6.87512      5.21496        -0.000000     -0.179984     -0.000000
      4.12507      1.37502      1.73832         0.052883     -0.000000     -0.000000
      4.12507      1.37502      5.21496         0.179984     -0.000000     -0.000000
      4.12507      4.12507      1.73832        -0.009846     -0.009846     -0.000000
      4.12507      4.12507      5.21496         0.022676      0.022676     -0.000000
      4.12507      6.87512      1.73832        -0.009846      0.009846     -0.000000
      4.12507      6.87512      5.21496         0.022676     -0.022676     -0.000000
      6.87512      1.37502      1.73832        -0.052883     -0.000000     -0.000000
      6.87512      1.37502      5.21496        -0.179984     -0.000000     -0.000000
      6.87512      4.12507      1.73832         0.009846     -0.009846     -0.000000
      6.87512      4.12507      5.21496        -0.022676      0.022676     -0.000000
      6.87512      6.87512      1.73832         0.009846      0.009846     -0.000000
      6.87512      6.87512      5.21496        -0.022676     -0.022676     -0.000000
 -----------------------------------------------------------------------------------
    total drift:                               -0.000000     -0.000000     -0.000000


--------------------------------------------------------------------------------------------------------



  FREE ENERGIE OF THE ION-ELECTRON SYSTEM (eV)
  ---------------------------------------------------
  free  energy   TOTEN  =      -237.85866391 eV

  energy  without entropy=     -237.88257137  energy(sigma->0) =     -237.86663306
 


--------------------------------------------------------------------------------------------------------


    POTLOK:  cpu time    0.5661: real time    0.6435


--------------------------------------------------------------------------------------------------------


     LOOP+:  cpu time  604.9974: real time  617.0009
    4ORBIT:  cpu time    0.0000: real time    0.0000
 


 total charge     
 
# of ion       s       p       d       tot
------------------------------------------
    1        0.406   0.428   0.000   0.834
    2        0.405   0.428   0.000   0.834
    3        0.405   0.428   0.000   0.834
    4        0.405   0.428   0.000   0.833
    5        0.405   0.427   0.000   0.832
    6        0.405   0.427   0.000   0.832
    7        0.405   0.428   0.000   0.833
    8        0.405   0.428   0.000   0.834
    9        0.405   0.428   0.000   0.834
   10        0.406   0.428   0.000   0.834
   11        0.405   0.427   0.000   0.832
   12        0.405   0.427   0.000   0.832
   13        0.405   0.427   0.000   0.833
   14        0.405   0.427   0.000   0.832
   15        0.405   0.427   0.000   0.832
   16        0.405   0.427   0.000   0.833
   17        0.405   0.427   0.000   0.833
   18        0.405   0.427   0.000   0.833
   19        0.334   0.345   5.146   5.825
   20        0.335   0.352   5.141   5.828
   21        0.334   0.354   5.126   5.814
   22        0.335   0.358   5.092   5.784
   23        0.334   0.354   5.126   5.814
   24        0.335   0.358   5.092   5.784
   25        0.333   0.355   5.130   5.819
   26        0.334   0.353   5.155   5.842
   27        0.334   0.351   5.132   5.817
   28        0.333   0.353   5.139   5.826
   29        0.334   0.351   5.136   5.822
   30        0.333   0.353   5.130   5.815
   31        0.333   0.355   5.130   5.819
   32        0.334   0.353   5.155   5.842
   33        0.334   0.351   5.136   5.822
   34        0.333   0.353   5.130   5.815
   35        0.334   0.351   5.132   5.817
   36        0.333   0.353   5.139   5.826
--------------------------------------------------
tot         13.305  14.050  92.368 119.723
 


 magnetization (x)
 
# of ion       s       p       d       tot
------------------------------------------
    1       -0.004  -0.008   0.000  -0.012
    2       -0.004  -0.010   0.000  -0.014
    3       -0.004  -0.009   0.000  -0.013
    4       -0.004  -0.009   0.000  -0.013
    5       -0.001  -0.001   0.000  -0.002
    6       -0.001  -0.001   0.000  -0.002
    7       -0.004  -0.009   0.000  -0.013
    8       -0.004  -0.009   0.000  -0.013
    9       -0.004  -0.010   0.000  -0.014
   10       -0.004  -0.008   0.000  -0.012
   11       -0.001  -0.001   0.000  -0.002
   12       -0.001  -0.001   0.000  -0.002
   13       -0.001  -0.000   0.000  -0.001
   14       -0.001  -0.000   0.000  -0.001
   15       -0.001  -0.000   0.000  -0.001
   16       -0.001  -0.000   0.000  -0.001
   17        0.001  -0.000   0.000   0.000
   18        0.001  -0.000   0.000   0.000
   19        0.022   0.010   2.368   2.400
   20        0.029   0.025   2.089   2.144
   21        0.013   0.025   2.311   2.349
   22       -0.022  -0.027  -2.433  -2.481
   23        0.013   0.025   2.311   2.349
   24       -0.022  -0.027  -2.433  -2.481
   25        0.013   0.026   2.316   2.355
   26       -0.023  -0.026  -2.412  -2.460
   27        0.016   0.017   2.344   2.378
   28       -0.011  -0.014  -2.301  -2.325
   29        0.016   0.017   2.337   2.371
   30       -0.011  -0.013  -2.303  -2.328
   31        0.013   0.026   2.316   2.355
   32       -0.023  -0.026  -2.412  -2.460
   33        0.016   0.017   2.337   2.371
   34       -0.011  -0.013  -2.303  -2.328
   35        0.016   0.017   2.344   2.378
   36       -0.011  -0.014  -2.301  -2.325
--------------------------------------------------
tot         -0.001  -0.032   4.174   4.141
 

 total amount of memory used by VASP MPI-rank0   383621. kBytes
=======================================================================

   base      :      30000. kBytes
   nonl-proj :      16518. kBytes
   fftplans  :      21726. kBytes
   grid      :      14732. kBytes
   one-center:        279. kBytes
   wavefun   :     300366. kBytes
 
  
  
 General timing and accounting informations for this job:
 ========================================================
  
                  Total CPU time used (sec):      619.044
                            User time (sec):      605.088
                          System time (sec):       13.956
                         Elapsed time (sec):      633.326
  
                   Maximum memory used (kb):      506156.
                   Average memory used (kb):           0.
  
                          Minor page faults:       219328
                          Major page faults:           21
                 Voluntary context switches:         4021
