   36   36    1    2
  0.1314651E+02  0.8250148E-09  0.8250148E-09  0.6953274E-09  0.2000000E-15
  1.000000000000000E-004
  CAR 
 AlMn_pv                                 
    180     52    110
 
  0.0000000E+00  0.0000000E+00  0.0000000E+00  0.6666667E-02
    1       -2.516907     -2.523984   1.000000   1.000000
    2       -0.374524     -0.358572   1.000000   1.000000
    3       -0.332602     -0.348230   1.000000   1.000000
    4       -0.321602     -0.337822   1.000000   1.000000
    5       -0.305780     -0.320161   1.000000   1.000000
    6       -0.122688     -0.126970   1.000000   1.000000
    7        1.379163      1.345265   1.000000   1.000000
    8        1.386804      1.378228   1.000000   1.000000
    9        1.401059      1.388227   1.000000   1.000000
   10        1.401093      1.398457   1.000000   1.000000
   11        1.428166      1.414875   1.000000   1.000000
   12        1.576167      1.557167   1.000000   1.000000
   13        1.590924      1.577063   1.000000   1.000000
   14        1.599611      1.596613   1.000000   1.000000
   15        1.618512      1.619431   1.000000   1.000000
   16        2.755189      2.741030   1.000000   1.000000
   17        2.785905      2.765966   1.000000   1.000000
   18        2.804633      2.774745   1.000000   1.000000
   19        2.835480      2.793944   1.000000   1.000000
   20        3.479957      3.499596   1.000000   1.000000
   21        3.569183      3.535005   1.000000   1.000000
   22        3.575720      3.573711   1.000000   1.000000
   23        3.617624      3.583093   1.000000   1.000000
   24        4.171636      4.110740   1.000000   1.000000
   25        4.281326      4.225962   1.000000   1.000000
   26        4.291074      4.267361   1.000000   1.000000
   27        4.459242      4.467666   1.000000   1.000000
   28        4.561642      4.548157   1.000000   1.000000
   29        4.580061      4.563481   1.000000   1.000000
   30        4.659314      4.633774   1.000000   1.000000
   31        4.687134      4.650969   1.000000   1.000000
   32        4.782496      4.682949   1.000000   1.000000
   33        4.787938      4.732885   1.000000   1.000000
   34        4.815563      4.765252   1.000000   1.000000
   35        4.849481      4.787852   1.000000   1.000000
   36        4.908443      4.857807   1.000000   1.000000
   37        4.930927      4.885328   1.000000   1.000000
   38        4.946733      4.944480   1.000000   1.000000
   39        5.069952      4.995060   1.000000   1.000000
   40        5.212519      5.042184   1.000000   1.000000
   41        5.308299      5.234755   1.000000   1.000000
   42        5.311812      5.267854   1.000000   1.000000
   43        5.353256      5.310514   1.000000   1.000000
   44        5.396631      5.404533   1.000000   1.000000
   45        5.463372      5.425577   1.000000   1.000000
   46        5.503439      5.432329   1.000000   1.000000
   47        5.513614      5.447657   1.000000   1.000000
   48        5.554141      5.476653   1.000000   1.000000
   49        5.561767      5.480858   1.000000   1.000000
   50        5.593661      5.549932   1.000000   1.000000
   51        5.734744      5.566080   1.000000   1.000000
   52        5.797632      5.682897   1.000000   1.000000
   53        5.816166      5.736212   1.000000   1.000000
   54        5.869721      5.745936   1.000000   1.000000
   55        5.876242      5.867554   1.000000   1.000000
   56        5.917745      5.913071   1.000000   1.000000
   57        5.977715      5.920093   1.000000   1.000000
   58        6.169038      6.125243   1.000000   1.000000
   59        6.215220      6.173680   1.000000   1.000000
   60        6.293364      6.194814   1.000000   1.000000
   61        6.436609      6.266551   1.000000   1.000000
   62        6.445607      6.332796   1.000000   1.000000
   63        6.458361      6.352486   1.000000   1.000000
   64        6.502313      6.380606   1.000000   1.000000
   65        6.509748      6.402944   1.000000   1.000000
   66        6.516389      6.427132   1.000000   1.000000
   67        6.547311      6.480080   1.000000   1.000000
   68        6.551348      6.522065   1.000000   1.000000
   69        6.607674      6.578201   1.000000   1.000000
   70        6.627031      6.596893   1.000000   1.000000
   71        6.632221      6.629876   1.000000   1.000000
   72        6.674076      6.662013   1.000000   1.000000
   73        6.698773      6.709065   1.000000   1.000000
   74        6.713250      6.740175   1.000000   1.000000
   75        6.760656      6.753484   1.000000   1.000000
   76        6.778905      6.774531   1.000000   1.000000
   77        6.796115      6.836705   1.000000   1.000000
   78        6.854054      6.917979   1.000000   1.000000
   79        6.973045      6.997049   1.000000   1.000000
   80        7.054772      7.085101   1.000003   1.000008
   81        7.131410      7.248206   1.000034   1.000762
   82        7.260908      7.299452   1.001023   1.002341
   83        7.373933      7.341869   1.009000   1.005257
   84        7.436843      7.363492   1.020863   1.007609
   85        7.501299      7.443065   1.034081   1.022282
   86        7.547843      7.490257   1.032292   1.032443
   87        7.584440      7.523996   1.013133   1.035435
   88        7.754558      7.527990   0.551130   1.035292
   89        7.788264      7.686739   0.408208   0.809215
   90        7.887603      7.771024   0.077509   0.480244
   91        7.999608      7.790380  -0.034879   0.399211
   92        8.007179      7.909688  -0.035391   0.034441
   93        8.007822      7.922689  -0.035408   0.014800
   94        8.046346      7.965453  -0.031737  -0.024797
   95        8.057203      7.989857  -0.029385  -0.033426
   96        8.131005      8.059631  -0.013453  -0.029051
   97        8.160358      8.062162  -0.008442  -0.028560
   98        8.250640      8.114853  -0.001565  -0.012084
   99        8.309316      8.194002  -0.000185  -0.004373
  100        8.337755      8.198073  -0.000007  -0.004106
  101        8.389134      8.291299  -0.000001  -0.000259
  102        8.483362      8.514880  -0.000000  -0.000000
  103        8.566673      8.655698  -0.000000  -0.000000
  104        8.627389      8.659013  -0.000000  -0.000000
  105        8.736836      8.726992  -0.000000  -0.000000
  106        8.780302      8.744475  -0.000000  -0.000000
  107        8.816413      8.747465  -0.000000  -0.000000
  108        8.866821      8.783465  -0.000000  -0.000000
  109        8.873559      8.800439  -0.000000  -0.000000
  110        8.958309      8.811434  -0.000000  -0.000000
 
  0.2000000E+00  0.0000000E+00  0.0000000E+00  0.1333333E-01
    1       -2.426428     -2.433550   1.000000   1.000000
    2       -1.100306     -1.106862   1.000000   1.000000
    3       -0.262568     -0.273165   1.000000   1.000000
    4       -0.239443     -0.244105   1.000000   1.000000
    5       -0.056728     -0.061389   1.000000   1.000000
    6        0.571120      0.561263   1.000000   1.000000
    7        0.888642      0.875571   1.000000   1.000000
    8        0.930676      0.922012   1.000000   1.000000
    9        0.945453      0.938537   1.000000   1.000000
   10        1.442469      1.427201   1.000000   1.000000
   11        1.475489      1.470194   1.000000   1.000000
   12        1.497578      1.486687   1.000000   1.000000
   13        1.939396      1.910095   1.000000   1.000000
   14        2.315355      2.299513   1.000000   1.000000
   15        2.330417      2.309463   1.000000   1.000000
   16        2.333095      2.325564   1.000000   1.000000
   17        2.346452      2.330289   1.000000   1.000000
   18        2.839128      2.830467   1.000000   1.000000
   19        3.240050      3.200994   1.000000   1.000000
   20        3.294266      3.254056   1.000000   1.000000
   21        3.596104      3.585097   1.000000   1.000000
   22        3.657087      3.643516   1.000000   1.000000
   23        3.749645      3.734259   1.000000   1.000000
   24        4.140270      4.086418   1.000000   1.000000
   25        4.211592      4.177094   1.000000   1.000000
   26        4.268064      4.232892   1.000000   1.000000
   27        4.320963      4.300212   1.000000   1.000000
   28        4.438782      4.437342   1.000000   1.000000
   29        4.606447      4.531433   1.000000   1.000000
   30        4.611322      4.580067   1.000000   1.000000
   31        4.631869      4.582081   1.000000   1.000000
   32        4.633666      4.611387   1.000000   1.000000
   33        4.699544      4.689875   1.000000   1.000000
   34        4.745440      4.710411   1.000000   1.000000
   35        4.920706      4.858239   1.000000   1.000000
   36        4.950231      4.864963   1.000000   1.000000
   37        5.003364      4.932815   1.000000   1.000000
   38        5.032110      4.989277   1.000000   1.000000
   39        5.066590      5.008040   1.000000   1.000000
   40        5.109815      5.015667   1.000000   1.000000
   41        5.167965      5.099689   1.000000   1.000000
   42        5.302127      5.251774   1.000000   1.000000
   43        5.327121      5.270977   1.000000   1.000000
   44        5.394746      5.335011   1.000000   1.000000
   45        5.408026      5.391528   1.000000   1.000000
   46        5.498936      5.441189   1.000000   1.000000
   47        5.505212      5.451515   1.000000   1.000000
   48        5.557639      5.493925   1.000000   1.000000
   49        5.632113      5.508296   1.000000   1.000000
   50        5.717438      5.582364   1.000000   1.000000
   51        5.733789      5.690081   1.000000   1.000000
   52        5.816446      5.732013   1.000000   1.000000
   53        5.825395      5.750635   1.000000   1.000000
   54        5.841790      5.851086   1.000000   1.000000
   55        5.937543      5.867440   1.000000   1.000000
   56        5.946130      5.929615   1.000000   1.000000
   57        6.006361      5.972571   1.000000   1.000000
   58        6.138768      6.122107   1.000000   1.000000
   59        6.250018      6.173824   1.000000   1.000000
   60        6.278552      6.209682   1.000000   1.000000
   61        6.358046      6.238767   1.000000   1.000000
   62        6.368186      6.294407   1.000000   1.000000
   63        6.402041      6.342570   1.000000   1.000000
   64        6.442212      6.363781   1.000000   1.000000
   65        6.483693      6.368492   1.000000   1.000000
   66        6.514523      6.418125   1.000000   1.000000
   67        6.553570      6.428458   1.000000   1.000000
   68        6.572159      6.465764   1.000000   1.000000
   69        6.592030      6.514473   1.000000   1.000000
   70        6.625094      6.585093   1.000000   1.000000
   71        6.631972      6.607625   1.000000   1.000000
   72        6.688611      6.637480   1.000000   1.000000
   73        6.713259      6.698965   1.000000   1.000000
   74        6.730148      6.711173   1.000000   1.000000
   75        6.746542      6.727430   1.000000   1.000000
   76        6.773771      6.774280   1.000000   1.000000
   77        6.818280      6.821399   1.000000   1.000000
   78        6.848872      6.891261   1.000000   1.000000
   79        7.016746      7.007069   1.000001   1.000001
   80        7.058650      7.058129   1.000003   1.000003
   81        7.092690      7.140036   1.000010   1.000044
   82        7.230848      7.235647   1.000503   1.000566
   83        7.320210      7.296737   1.003533   1.002214
   84        7.362347      7.354237   1.007477   1.006525
   85        7.496747      7.382938   1.033469   1.010330
   86        7.498868      7.447213   1.033762   1.023236
   87        7.622053      7.546262   0.967363   1.032694
   88        7.744279      7.616651   0.594003   0.975859
   89        7.864083      7.722928   0.136461   0.679176
   90        7.892481      7.758981   0.066981   0.531197
   91        7.933480      7.805887   0.001558   0.336356
   92        7.961070      7.905929  -0.022115   0.040961
   93        7.991078      7.938404  -0.033634  -0.003881
   94        8.039247      8.006740  -0.032995  -0.035372
   95        8.137511      8.060726  -0.012317  -0.028870
   96        8.184381      8.066016  -0.005894  -0.027716
   97        8.205071      8.121880  -0.003862  -0.015276
   98        8.245263      8.146428  -0.001825  -0.010722
   99        8.271713      8.222400  -0.000970  -0.002744
  100        8.299514      8.267890  -0.000521  -0.001104
  101        8.326972      8.300603  -0.000266  -0.000512
  102        8.558130      8.426634  -0.000000  -0.000001
  103        8.660153      8.562806  -0.000000  -0.000000
  104        8.910822      8.641640  -0.000000  -0.000000
  105        9.173041      8.672225  -0.000000  -0.000000
  106        9.367743      8.776530   0.000000  -0.000000
  107       10.119925      8.827007   0.000000  -0.000000
  108       11.519697      8.902663   0.000000  -0.000000
  109       11.673411      9.013134   0.000000  -0.000000
  110       12.181203     11.091434   0.000000   0.000000
 
  0.4000000E+00  0.0000000E+00  0.0000000E+00  0.1333333E-01
    1       -2.156899     -2.164388   1.000000   1.000000
    2       -1.710774     -1.717078   1.000000   1.000000
    3       -0.016514     -0.027246   1.000000   1.000000
    4        0.004456     -0.000934   1.000000   1.000000
    5        0.138354      0.132610   1.000000   1.000000
    6        0.387080      0.377535   1.000000   1.000000
    7        0.407963      0.402315   1.000000   1.000000
    8        0.460878      0.451938   1.000000   1.000000
    9        1.583942      1.574317   1.000000   1.000000
   10        1.628335      1.611220   1.000000   1.000000
   11        1.657284      1.649030   1.000000   1.000000
   12        1.777711      1.765499   1.000000   1.000000
   13        1.931234      1.916267   1.000000   1.000000
   14        1.959652      1.952121   1.000000   1.000000
   15        2.234956      2.226950   1.000000   1.000000
   16        2.359469      2.311350   1.000000   1.000000
   17        2.684182      2.675924   1.000000   1.000000
   18        2.952426      2.926069   1.000000   1.000000
   19        3.029796      3.021374   1.000000   1.000000
   20        3.581170      3.526370   1.000000   1.000000
   21        3.731878      3.667441   1.000000   1.000000
   22        3.786000      3.775665   1.000000   1.000000
   23        3.820020      3.801194   1.000000   1.000000
   24        4.020678      3.997390   1.000000   1.000000
   25        4.043235      4.017734   1.000000   1.000000
   26        4.137449      4.125312   1.000000   1.000000
   27        4.196617      4.178822   1.000000   1.000000
   28        4.325341      4.255646   1.000000   1.000000
   29        4.355432      4.288777   1.000000   1.000000
   30        4.441332      4.421829   1.000000   1.000000
   31        4.469999      4.473500   1.000000   1.000000
   32        4.544254      4.534346   1.000000   1.000000
   33        4.724121      4.673246   1.000000   1.000000
   34        4.784215      4.754440   1.000000   1.000000
   35        4.913814      4.846352   1.000000   1.000000
   36        4.943446      4.878088   1.000000   1.000000
   37        5.011354      4.961562   1.000000   1.000000
   38        5.055579      5.024984   1.000000   1.000000
   39        5.127084      5.046657   1.000000   1.000000
   40        5.176538      5.080319   1.000000   1.000000
   41        5.240937      5.158025   1.000000   1.000000
   42        5.266957      5.183020   1.000000   1.000000
   43        5.326313      5.259267   1.000000   1.000000
   44        5.353646      5.272821   1.000000   1.000000
   45        5.435711      5.425245   1.000000   1.000000
   46        5.470058      5.437015   1.000000   1.000000
   47        5.539150      5.494013   1.000000   1.000000
   48        5.554098      5.507520   1.000000   1.000000
   49        5.665741      5.562686   1.000000   1.000000
   50        5.694602      5.621721   1.000000   1.000000
   51        5.765234      5.687839   1.000000   1.000000
   52        5.792640      5.698244   1.000000   1.000000
   53        5.800605      5.768395   1.000000   1.000000
   54        5.835960      5.810175   1.000000   1.000000
   55        5.930587      5.938535   1.000000   1.000000
   56        6.001998      6.024720   1.000000   1.000000
   57        6.008294      6.101397   1.000000   1.000000
   58        6.177149      6.138082   1.000000   1.000000
   59        6.206127      6.148190   1.000000   1.000000
   60        6.255943      6.171058   1.000000   1.000000
   61        6.279539      6.196860   1.000000   1.000000
   62        6.303542      6.223753   1.000000   1.000000
   63        6.351980      6.263434   1.000000   1.000000
   64        6.400711      6.321131   1.000000   1.000000
   65        6.431056      6.322006   1.000000   1.000000
   66        6.432576      6.351533   1.000000   1.000000
   67        6.480055      6.387007   1.000000   1.000000
   68        6.549259      6.453440   1.000000   1.000000
   69        6.594510      6.472364   1.000000   1.000000
   70        6.605605      6.490414   1.000000   1.000000
   71        6.624569      6.573002   1.000000   1.000000
   72        6.630645      6.587695   1.000000   1.000000
   73        6.697772      6.712755   1.000000   1.000000
   74        6.716483      6.717558   1.000000   1.000000
   75        6.789174      6.746045   1.000000   1.000000
   76        6.810843      6.762265   1.000000   1.000000
   77        6.814805      6.793649   1.000000   1.000000
   78        6.934680      6.895569   1.000000   1.000000
   79        7.062499      6.900686   1.000004   1.000000
   80        7.069967      6.957538   1.000005   1.000000
   81        7.171307      7.108375   1.000107   1.000017
   82        7.211225      7.189230   1.000308   1.000174
   83        7.277118      7.209537   1.001464   1.000295
   84        7.352863      7.287433   1.006374   1.001822
   85        7.493485      7.422014   1.032961   1.017580
   86        7.562394      7.494851   1.027111   1.033187
   87        7.646253      7.577834   0.920650   1.018198
   88        7.667229      7.678724   0.868278   0.834616
   89        7.814003      7.754428   0.305508   0.550423
   90        7.872716      7.790146   0.113282   0.400375
   91        7.895593      7.881128   0.060646   0.092213
   92        7.909656      7.916766   0.034733   0.023284
   93        8.005289      7.959637  -0.035307  -0.021205
   94        8.068723      8.016953  -0.027144  -0.035343
   95        8.090279      8.040357  -0.022211  -0.032820
   96        8.123422      8.065186  -0.015024  -0.027932
   97        8.183844      8.089899  -0.005987  -0.022244
   98        8.251830      8.167819  -0.001596  -0.007808
   99        8.282324      8.254537  -0.000806  -0.001496
  100        8.309529      8.295075  -0.000394  -0.000595
  101        8.319446      8.311357  -0.000327  -0.000400
  102        8.361860      8.404072  -0.000106  -0.000031
  103        8.433472      8.418553  -0.000012  -0.000018
  104        8.436610      8.452517  -0.000012  -0.000006
  105        8.628844      8.478591  -0.000000  -0.000003
  106        8.724734      8.570719  -0.000000  -0.000000
  107        8.745094      8.688992  -0.000000  -0.000000
  108        8.881080      8.735011  -0.000000  -0.000000
  109        9.009779      8.994529  -0.000000  -0.000000
  110        9.025304      9.849892  -0.000000   0.000000
 
  0.0000000E+00  0.2000000E+00  0.0000000E+00  0.1333333E-01
    1       -2.426378     -2.433545   1.000000   1.000000
    2       -1.100569     -1.107086   1.000000   1.000000
    3       -0.266393     -0.267485   1.000000   1.000000
    4       -0.234965     -0.249519   1.000000   1.000000
    5       -0.056819     -0.061170   1.000000   1.000000
    6        0.570353      0.561636   1.000000   1.000000
    7        0.885796      0.877623   1.000000   1.000000
    8        0.927374      0.925156   1.000000   1.000000
    9        0.949196      0.935013   1.000000   1.000000
   10        1.450375      1.422943   1.000000   1.000000
   11        1.476807      1.465945   1.000000   1.000000
   12        1.497600      1.486646   1.000000   1.000000
   13        1.932054      1.917645   1.000000   1.000000
   14        2.316927      2.296588   1.000000   1.000000
   15        2.330983      2.304092   1.000000   1.000000
   16        2.332604      2.328456   1.000000   1.000000
   17        2.348849      2.332124   1.000000   1.000000
   18        2.838835      2.831119   1.000000   1.000000
   19        3.242078      3.214914   1.000000   1.000000
   20        3.280278      3.246686   1.000000   1.000000
   21        3.595761      3.589223   1.000000   1.000000
   22        3.658618      3.634893   1.000000   1.000000
   23        3.751180      3.734135   1.000000   1.000000
   24        4.139164      4.085188   1.000000   1.000000
   25        4.213870      4.177458   1.000000   1.000000
   26        4.271996      4.231575   1.000000   1.000000
   27        4.325074      4.308302   1.000000   1.000000
   28        4.407995      4.434845   1.000000   1.000000
   29        4.602376      4.528366   1.000000   1.000000
   30        4.603503      4.569450   1.000000   1.000000
   31        4.624962      4.599823   1.000000   1.000000
   32        4.649216      4.617671   1.000000   1.000000
   33        4.714963      4.677974   1.000000   1.000000
   34        4.782316      4.709432   1.000000   1.000000
   35        4.911530      4.845472   1.000000   1.000000
   36        4.917984      4.868546   1.000000   1.000000
   37        5.026950      4.944418   1.000000   1.000000
   38        5.036421      4.976934   1.000000   1.000000
   39        5.062380      5.004189   1.000000   1.000000
   40        5.093398      5.025631   1.000000   1.000000
   41        5.159345      5.111738   1.000000   1.000000
   42        5.333069      5.250865   1.000000   1.000000
   43        5.334401      5.271114   1.000000   1.000000
   44        5.400476      5.347608   1.000000   1.000000
   45        5.428972      5.393945   1.000000   1.000000
   46        5.492250      5.441489   1.000000   1.000000
   47        5.516709      5.487802   1.000000   1.000000
   48        5.549745      5.503148   1.000000   1.000000
   49        5.607064      5.545144   1.000000   1.000000
   50        5.725148      5.586477   1.000000   1.000000
   51        5.741389      5.635773   1.000000   1.000000
   52        5.809322      5.722724   1.000000   1.000000
   53        5.847023      5.727398   1.000000   1.000000
   54        5.862396      5.803808   1.000000   1.000000
   55        5.937672      5.837691   1.000000   1.000000
   56        5.942226      5.930898   1.000000   1.000000
   57        6.003978      5.958266   1.000000   1.000000
   58        6.169753      6.111270   1.000000   1.000000
   59        6.232059      6.183048   1.000000   1.000000
   60        6.259988      6.226484   1.000000   1.000000
   61        6.352163      6.235940   1.000000   1.000000
   62        6.363444      6.312443   1.000000   1.000000
   63        6.390105      6.323578   1.000000   1.000000
   64        6.457301      6.332827   1.000000   1.000000
   65        6.475021      6.367872   1.000000   1.000000
   66        6.484710      6.426328   1.000000   1.000000
   67        6.536835      6.458812   1.000000   1.000000
   68        6.559641      6.465230   1.000000   1.000000
   69        6.574245      6.511190   1.000000   1.000000
   70        6.625207      6.585661   1.000000   1.000000
   71        6.633827      6.588624   1.000000   1.000000
   72        6.679537      6.625071   1.000000   1.000000
   73        6.701441      6.639264   1.000000   1.000000
   74        6.717380      6.717434   1.000000   1.000000
   75        6.746053      6.778684   1.000000   1.000000
   76        6.788617      6.786521   1.000000   1.000000
   77        6.817205      6.800358   1.000000   1.000000
   78        6.855829      6.952010   1.000000   1.000000
   79        6.989110      7.016538   1.000000   1.000001
   80        7.061728      7.098188   1.000004   1.000012
   81        7.069350      7.186673   1.000005   1.000162
   82        7.212837      7.262859   1.000322   1.001069
   83        7.340988      7.269000   1.005181   1.001224
   84        7.383073      7.380131   1.010354   1.009898
   85        7.487279      7.440955   1.031917   1.021803
   86        7.501943      7.451763   1.034167   1.024287
   87        7.661840      7.519552   0.882588   1.035442
   88        7.738798      7.656743   0.616605   0.895770
   89        7.852920      7.695219   0.169341   0.781152
   90        7.929207      7.723382   0.006530   0.677409
   91        7.936115      7.784256  -0.001364   0.424667
   92        7.991323      7.898673  -0.033684   0.054408
   93        8.049726      7.940043  -0.031139  -0.005499
   94        8.071145      7.960470  -0.026593  -0.021915
   95        8.121144      8.007564  -0.015435  -0.035401
   96        8.176749      8.022425  -0.006741  -0.035014
   97        8.203450      8.108880  -0.004200  -0.017921
   98        8.220986      8.188704  -0.002999  -0.005365
   99        8.296946      8.202974  -0.000563  -0.004023
  100        8.300848      8.277210  -0.000519  -0.000864
  101        8.379767      8.329672  -0.000057  -0.000011
  102        8.492056      8.441144  -0.000002  -0.000002
  103        8.535498      8.538859  -0.000000  -0.000000
  104        8.594047      8.617931  -0.000000  -0.000000
  105        8.631233      8.630588  -0.000000  -0.000000
  106        8.638631      8.734069  -0.000000  -0.000000
  107        8.936493      8.767848  -0.000000  -0.000000
  108        8.986222      8.848144  -0.000000  -0.000000
  109        9.646226      9.285210   0.000000  -0.000000
  110       10.771560     11.006007   0.000000   0.000000
 
  0.2000000E+00  0.2000000E+00  0.0000000E+00  0.1333333E-01
    1       -2.336185     -2.343375   1.000000   1.000000
    2       -1.023666     -1.027703   1.000000   1.000000
    3       -1.005005     -1.014842   1.000000   1.000000
    4        0.009054      0.004261   1.000000   1.000000
    5        0.230668      0.223099   1.000000   1.000000
    6        0.641190      0.634803   1.000000   1.000000
    7        0.659180      0.648251   1.000000   1.000000
    8        0.944284      0.935309   1.000000   1.000000
    9        0.957950      0.945750   1.000000   1.000000
   10        1.591501      1.578140   1.000000   1.000000
   11        1.746823      1.734453   1.000000   1.000000
   12        1.757885      1.753924   1.000000   1.000000
   13        1.854172      1.838525   1.000000   1.000000
   14        1.991105      1.969931   1.000000   1.000000
   15        2.007688      1.983650   1.000000   1.000000
   16        2.836124      2.810593   1.000000   1.000000
   17        2.851961      2.821820   1.000000   1.000000
   18        2.885602      2.870059   1.000000   1.000000
   19        2.906033      2.900255   1.000000   1.000000
   20        2.935643      2.920690   1.000000   1.000000
   21        3.674169      3.629763   1.000000   1.000000
   22        3.788022      3.770080   1.000000   1.000000
   23        3.803849      3.790514   1.000000   1.000000
   24        3.880183      3.852219   1.000000   1.000000
   25        4.157478      4.133003   1.000000   1.000000
   26        4.347158      4.311870   1.000000   1.000000
   27        4.372477      4.330309   1.000000   1.000000
   28        4.387282      4.361829   1.000000   1.000000
   29        4.432573      4.390327   1.000000   1.000000
   30        4.495240      4.428128   1.000000   1.000000
   31        4.505912      4.483885   1.000000   1.000000
   32        4.600207      4.605850   1.000000   1.000000
   33        4.712140      4.639962   1.000000   1.000000
   34        4.769769      4.693331   1.000000   1.000000
   35        4.791773      4.779980   1.000000   1.000000
   36        4.922004      4.867379   1.000000   1.000000
   37        4.945684      4.887393   1.000000   1.000000
   38        4.949916      4.909922   1.000000   1.000000
   39        5.142795      5.082946   1.000000   1.000000
   40        5.179254      5.138190   1.000000   1.000000
   41        5.268691      5.189155   1.000000   1.000000
   42        5.315888      5.236193   1.000000   1.000000
   43        5.354367      5.279241   1.000000   1.000000
   44        5.417856      5.332482   1.000000   1.000000
   45        5.443793      5.402300   1.000000   1.000000
   46        5.490786      5.424821   1.000000   1.000000
   47        5.505130      5.452702   1.000000   1.000000
   48        5.643323      5.525916   1.000000   1.000000
   49        5.663366      5.615967   1.000000   1.000000
   50        5.724958      5.636536   1.000000   1.000000
   51        5.733137      5.691278   1.000000   1.000000
   52        5.778613      5.720007   1.000000   1.000000
   53        5.857430      5.763263   1.000000   1.000000
   54        5.859186      5.834231   1.000000   1.000000
   55        5.960320      5.884380   1.000000   1.000000
   56        5.994182      5.955069   1.000000   1.000000
   57        6.000153      5.981466   1.000000   1.000000
   58        6.179599      6.116688   1.000000   1.000000
   59        6.221426      6.184006   1.000000   1.000000
   60        6.250581      6.185643   1.000000   1.000000
   61        6.300905      6.271806   1.000000   1.000000
   62        6.337754      6.293416   1.000000   1.000000
   63        6.391623      6.333531   1.000000   1.000000
   64        6.438489      6.336699   1.000000   1.000000
   65        6.477982      6.360391   1.000000   1.000000
   66        6.491782      6.413069   1.000000   1.000000
   67        6.524544      6.420732   1.000000   1.000000
   68        6.568935      6.443757   1.000000   1.000000