       N       E                     dE             d eps       ncg     rms          ort
DAV:   1     0.135223024710E+04    0.13522E+04   -0.58478E+04  5720   0.144E+03
DAV:   2    -0.560903691270E+02   -0.14083E+04   -0.13789E+04  5720   0.446E+02
DAV:   3    -0.236794200331E+03   -0.18070E+03   -0.16362E+03  5720   0.172E+02
DAV:   4    -0.265932514320E+03   -0.29138E+02   -0.26199E+02  5720   0.750E+01
DAV:   5    -0.269257765544E+03   -0.33253E+01   -0.31645E+01  5720   0.222E+01
DAV:   6    -0.269548514776E+03   -0.29075E+00   -0.28177E+00  5720   0.569E+00
DAV:   7    -0.269583147566E+03   -0.34633E-01   -0.33944E-01  5720   0.172E+00
DAV:   8    -0.269587208075E+03   -0.40605E-02   -0.40033E-02  5720   0.484E-01
SDA:   9    -0.594243166185E+02    0.21016E+03   -0.40033E-02  5720   0.237E+04 0.000E+00
CGA:  10    -0.204831816329E+03   -0.14541E+03   -0.14447E+03  5720   0.174E+03 0.441E+03
CGA:  11    -0.216667156781E+03   -0.11835E+02   -0.11550E+02  5720   0.531E+02 0.860E+01
CGA:  12    -0.224828263191E+03   -0.81611E+01   -0.81455E+01  5720   0.966E+02-0.946E-01
CGA:  13    -0.232222896875E+03   -0.73946E+01   -0.73702E+01  5720   0.197E+02 0.144E+01
CGA:  14    -0.233596603617E+03   -0.13737E+01   -0.13904E+01  5720   0.490E+01-0.103E+00
CGA:  15    -0.234390874078E+03   -0.79427E+00   -0.79477E+00  5720   0.686E+01 0.223E-01
CGA:  16    -0.234974462403E+03   -0.58359E+00   -0.58561E+00  5720   0.243E+01-0.418E-02
CGA:  17    -0.235177485388E+03   -0.20302E+00   -0.20320E+00  5720   0.121E+01 0.559E-03
CGA:  18    -0.235364374515E+03   -0.18689E+00   -0.18694E+00  5720   0.160E+01 0.184E-02
CGA:  19    -0.235496048249E+03   -0.13167E+00   -0.13254E+00  5720   0.579E+00-0.654E-02
CGA:  20    -0.235549325093E+03   -0.53277E-01   -0.53437E-01  5720   0.379E+00-0.985E-03
CGA:  21    -0.235612778668E+03   -0.63454E-01   -0.63430E-01  5720   0.526E+00 0.109E-02
CGA:  22    -0.235670343901E+03   -0.57565E-01   -0.57577E-01  5720   0.191E+00-0.296E-03
CGA:  23    -0.235690290394E+03   -0.19946E-01   -0.19940E-01  5720   0.142E+00-0.227E-03
CGA:  24    -0.235710632544E+03   -0.20342E-01   -0.20341E-01  5720   0.174E+00-0.294E-03
CGA:  25    -0.235730383930E+03   -0.19751E-01   -0.19753E-01  5720   0.114E+00-0.348E-03
CGA:  26    -0.235744045544E+03   -0.13662E-01   -0.13660E-01  5720   0.112E+00-0.169E-03
CGA:  27    -0.235757313656E+03   -0.13268E-01   -0.13263E-01  5720   0.804E-01-0.715E-04
CGA:  28    -0.235764773107E+03   -0.74595E-02   -0.74502E-02  5720   0.403E-01 0.112E-03
CGA:  29    -0.235769243316E+03   -0.44702E-02   -0.44718E-02  5720   0.366E-01 0.854E-04
CGA:  30    -0.235774141684E+03   -0.48984E-02   -0.48982E-02  5720   0.326E-01 0.510E-04
CGA:  31    -0.235777901678E+03   -0.37600E-02   -0.37615E-02  5720   0.223E-01 0.822E-04
CGA:  32    -0.235781145488E+03   -0.32438E-02   -0.32436E-02  5720   0.212E-01 0.588E-04
CGA:  33    -0.235783723356E+03   -0.25779E-02   -0.25791E-02  5720   0.147E-01 0.999E-04
CGA:  34    -0.235785191970E+03   -0.14686E-02   -0.14709E-02  5720   0.940E-02 0.838E-04
CGA:  35    -0.235786381458E+03   -0.11895E-02   -0.11903E-02  5720   0.764E-02 0.710E-04
CGA:  36    -0.235787187785E+03   -0.80633E-03   -0.80752E-03  5720   0.561E-02 0.379E-04
CGA:  37    -0.235787848975E+03   -0.66119E-03   -0.66164E-03  5720   0.511E-02 0.235E-04
CGA:  38    -0.235788688384E+03   -0.83941E-03   -0.83846E-03  5720   0.531E-02 0.315E-04
CGA:  39    -0.235789185131E+03   -0.49675E-03   -0.49779E-03  5720   0.217E-02 0.258E-04
SDA:  40    -0.235789415000E+03   -0.22987E-03   -0.23022E-03  5720   0.146E-02 0.131E-04
CGA:  41    -0.235789555873E+03   -0.14087E-03   -0.14061E-03  5720   0.181E-02-0.748E-05
CGA:  42    -0.235789834713E+03   -0.27884E-03   -0.27939E-03  5720   0.109E-02-0.230E-04
CGA:  43    -0.235789955755E+03   -0.12104E-03   -0.12092E-03  5720   0.113E-02-0.651E-05
CGA:  44    -0.235790089125E+03   -0.13337E-03   -0.13329E-03  5720   0.688E-03-0.634E-05
CGA:  45    -0.235790165190E+03   -0.76065E-04   -0.75933E-04  5720   0.726E-03-0.689E-05
CGA:  46    -0.235790275300E+03   -0.11011E-03   -0.11045E-03  5720   0.522E-03-0.140E-04
CGA:  47    -0.235790331854E+03   -0.56553E-04   -0.56480E-04  5720   0.564E-03-0.370E-05
CGA:  48    -0.235790426679E+03   -0.94825E-04   -0.94862E-04  5720   0.420E-03-0.967E-06
CGA:  49    -0.235790471446E+03   -0.44767E-04   -0.44774E-04  5720   0.331E-03 0.645E-06
CGA:  50    -0.235790544685E+03   -0.73239E-04   -0.73287E-04  5720   0.171E-03-0.662E-08
CGA:  51    -0.235790560682E+03   -0.15997E-04   -0.16034E-04  5720   0.146E-03 0.923E-06
CGA:  52    -0.235790589123E+03   -0.28441E-04   -0.28261E-04  5720   0.186E-03 0.328E-05
CGA:  53    -0.235790602576E+03   -0.13453E-04   -0.13548E-04  5720   0.733E-04 0.164E-05
CGA:  54    -0.235790620303E+03   -0.17727E-04   -0.17596E-04  5720   0.167E-03 0.134E-05
CGA:  55    -0.235790634297E+03   -0.13993E-04   -0.14037E-04  5720   0.349E-04 0.880E-06
CGA:  56    -0.235790637443E+03   -0.31462E-05   -0.31430E-05  5720   0.320E-04-0.324E-07
CGA:  57    -0.235790647860E+03   -0.10417E-04   -0.10662E-04  5720   0.543E-04-0.131E-05
CGA:  58    -0.235790650919E+03   -0.30591E-05   -0.30352E-05  5720   0.140E-04-0.275E-06
CGA:  59    -0.235790655892E+03   -0.49729E-05   -0.51907E-05  5720   0.606E-04-0.107E-05
CGA:  60    -0.235790660385E+03   -0.44924E-05   -0.44153E-05  5720   0.120E-04 0.671E-06
CGA:  61    -0.235790661082E+03   -0.69771E-06   -0.64091E-06  5720   0.533E-05 0.491E-06
CGA:  62    -0.235790661901E+03   -0.81836E-06   -0.87501E-06  5720   0.191E-04-0.222E-05
CGA:  63    -0.235790662020E+03   -0.11952E-06   -0.14677E-06  5720   0.219E-04 0.181E-05
CGA:  64    -0.235790662485E+03   -0.46533E-06   -0.48670E-06  5720   0.191E-04 0.310E-05
CGA:  65    -0.235790662909E+03   -0.42392E-06   -0.47178E-06  5720   0.188E-04 0.117E-05
CGA:  66    -0.235790663342E+03   -0.43244E-06   -0.49756E-06  5720   0.267E-04 0.560E-06
CGA:  67    -0.235790663950E+03   -0.60788E-06   -0.76131E-06  5720   0.449E-04 0.150E-05
CGA:  68    -0.235790664634E+03   -0.68453E-06   -0.11896E-05  5720   0.637E-04 0.906E-05
CGA:  69    -0.235790664668E+03   -0.33955E-07   -0.14887E-05  5720   0.642E-04 0.233E-04
CGA:  70    -0.235790663973E+03    0.69492E-06   -0.13297E-05  5720   0.480E-04 0.249E-04
SDA:  71    -0.235790663718E+03    0.25526E-06   -0.83613E-06  5720   0.280E-04 0.105E-04
CGA:  72    -0.235790666084E+03   -0.23664E-05   -0.23935E-05  5720   0.754E-05 0.106E-05
CGA:  73    -0.235790666867E+03   -0.78271E-06   -0.78083E-06  5720   0.327E-05 0.551E-06
CGA:  74    -0.235790667150E+03   -0.28247E-06   -0.28835E-06  5720   0.188E-05 0.361E-06
CGA:  75    -0.235790668560E+03   -0.14104E-05   -0.60490E-06  5720   0.542E-05 0.437E-05
CGA:  76    -0.235790668886E+03   -0.32637E-06   -0.32952E-06  5720   0.118E-05 0.613E-07
CGA:  77    -0.235790668956E+03   -0.69726E-07   -0.70738E-07  5720  -0.203E-06 0.183E-07
   1 F= -.23579067E+03 E0= -.23579250E+03  d E =0.549869E-02  mag=    -1.3212
