 vasp.5.4.4.18Apr17-6-g9f103f2a35 (build Dec 20 2018 12:05:58) complex          
  
 executed on             LinuxIFC date 2019.06.20  17:21:35
 running on   32 total cores
 distrk:  each k-point on    8 cores,    4 groups
 distr:  one band on NCORES_PER_BAND=   4 cores,    2 groups


--------------------------------------------------------------------------------------------------------


 INCAR:
 POTCAR:    PAW_PBE Al 04Jan2001                  
 POTCAR:    PAW_PBE Mn 06Sep2000                  

 ----------------------------------------------------------------------------- 
|                                                                             |
|           W    W    AA    RRRRR   N    N  II  N    N   GGGG   !!!           |
|           W    W   A  A   R    R  NN   N  II  NN   N  G    G  !!!           |
|           W    W  A    A  R    R  N N  N  II  N N  N  G       !!!           |
|           W WW W  AAAAAA  RRRRR   N  N N  II  N  N N  G  GGG   !            |
|           WW  WW  A    A  R   R   N   NN  II  N   NN  G    G                |
|           W    W  A    A  R    R  N    N  II  N    N   GGGG   !!!           |
|                                                                             |
|      You have enabled k-point parallelism (KPAR>1).                         |
|      This developmental code was originally  written by Paul Kent at ORNL,  |
|      and carefully double checked in Vienna.                                |
|      GW as well as linear response parallelism added by Martijn Marsman     |
|      and Georg Kresse.                                                      |
|      Carefully verify results versus KPAR=1.                                |
|      Report problems to Paul Kent and Vienna.                               |
|                                                                             |
 ----------------------------------------------------------------------------- 

 POTCAR:    PAW_PBE Al 04Jan2001                  
   VRHFIN =Al: s2p1                                                             
   LEXCH  = PE                                                                  
   EATOM  =    53.5387 eV,    3.9350 Ry                                         
                                                                                
   TITEL  = PAW_PBE Al 04Jan2001                                                
   LULTRA =        F    use ultrasoft PP ?                                      
   IUNSCR =        1    unscreen: 0-lin 1-nonlin 2-no                           
   RPACOR =    1.500    partial core radius                                     
   POMASS =   26.981; ZVAL   =    3.000    mass and valenz                      
   RCORE  =    1.900    outmost cutoff radius                                   
   RWIGS  =    2.650; RWIGS  =    1.402    wigner-seitz radius (au A)           
   ENMAX  =  240.300; ENMIN  =  180.225 eV                                      
   ICORE  =        2    local potential                                         
   LCOR   =        T    correct aug charges                                     
   LPAW   =        T    paw PP                                                  
   EAUG   =  291.052                                                            
   DEXC   =    0.000                                                            
   RMAX   =    1.939    core radius for proj-oper                               
   RAUG   =    1.300    factor for augmentation sphere                          
   RDEP   =    1.966    radius for radial grids                                 
   RDEPT  =    1.856    core radius for aug-charge                              
                                                                                
   Atomic configuration                                                         
    6 entries                                                                   
     n  l   j            E        occ.                                          
     1  0  0.50     -1511.1048   2.0000                                         
     2  0  0.50      -108.1629   2.0000                                         
     2  1  1.50       -69.6402   6.0000                                         
     3  0  0.50        -7.7528   2.0000                                         
     3  1  1.50        -2.7121   1.0000                                         
     3  2  2.50        -2.7212   0.0000                                         
   Description                                                                  
     l       E           TYP  RCUT    TYP  RCUT                                 
     0     -7.7528455     23  1.900                                             
     0     -3.3096929     23  1.900                                             
     1     -2.7120682     23  1.900                                             
     1     13.6058260     23  1.900                                             
     2     -2.7211652      7  1.900                                             
  local pseudopotential read in
  partial core-charges read in
  partial kinetic energy density read in
  atomic valenz-charges read in
  non local Contribution for L=           0  read in
    real space projection operators read in
  non local Contribution for L=           0  read in
    real space projection operators read in
  non local Contribution for L=           1  read in
    real space projection operators read in
  non local Contribution for L=           1  read in
    real space projection operators read in
    PAW grid and wavefunctions read in
 
   number of l-projection  operators is LMAX  =           4
   number of lm-projection operators is LMMAX =           8
 
 POTCAR:    PAW_PBE Mn 06Sep2000                  
   VRHFIN =Mn: d6 s1                                                            
   LEXCH  = PE                                                                  
   EATOM  =   416.7541 eV,   30.6306 Ry                                         
                                                                                
   TITEL  = PAW_PBE Mn 06Sep2000                                                
   LULTRA =        F    use ultrasoft PP ?                                      
   IUNSCR =        1    unscreen: 0-lin 1-nonlin 2-no                           
   RPACOR =    2.000    partial core radius                                     
   POMASS =   54.938; ZVAL   =    7.000    mass and valenz                      
   RCORE  =    2.300    outmost cutoff radius                                   
   RWIGS  =    2.500; RWIGS  =    1.323    wigner-seitz radius (au A)           
   ENMAX  =  269.864; ENMIN  =  202.398 eV                                      
   RCLOC  =    1.725    cutoff for local pot                                    
   LCOR   =        T    correct aug charges                                     
   LPAW   =        T    paw PP                                                  
   EAUG   =  500.711                                                            
   DEXC   =    0.000                                                            
   RMAX   =    2.343    core radius for proj-oper                               
   RAUG   =    1.300    factor for augmentation sphere                          
   RDEP   =    2.338    radius for radial grids                                 
   RDEPT  =    1.911    core radius for aug-charge                              
                                                                                
   Atomic configuration                                                         
    9 entries                                                                   
     n  l   j            E        occ.                                          
     1  0  0.50     -6424.8288   2.0000                                         
     2  0  0.50      -739.1154   2.0000                                         
     2  1  1.50      -625.3949   6.0000                                         
     3  0  0.50       -81.6100   2.0000                                         
     3  1  1.50       -50.4667   6.0000                                         
     3  2  2.50        -3.3745   6.0000                                         
     4  0  0.50        -4.1331   1.0000                                         
     4  1  0.50        -4.0817   0.0000                                         
     4  3  2.50        -1.3606   0.0000                                         
   Description                                                                  
     l       E           TYP  RCUT    TYP  RCUT                                 
     2     -3.3744664     23  2.300                                             
     2     -4.7350490     23  2.300                                             
     0     -4.1331408     23  2.300                                             
     0      7.6656614     23  2.300                                             
     1     -2.7211652     23  2.300                                             
     1     20.4087390     23  2.300                                             
  local pseudopotential read in
  partial core-charges read in
  partial kinetic energy density read in
  atomic valenz-charges read in
  non local Contribution for L=           2  read in
    real space projection operators read in
  non local Contribution for L=           2  read in
    real space projection operators read in
  non local Contribution for L=           0  read in
    real space projection operators read in
  non local Contribution for L=           0  read in
    real space projection operators read in
  non local Contribution for L=           1  read in
    real space projection operators read in
  non local Contribution for L=           1  read in
    real space projection operators read in
    PAW grid and wavefunctions read in
 
   number of l-projection  operators is LMAX  =           6
   number of lm-projection operators is LMMAX =          18
 

 ----------------------------------------------------------------------------- 
|                                                                             |
|  ADVICE TO THIS USER RUNNING 'VASP/VAMP'   (HEAR YOUR MASTER'S VOICE ...):  |
|                                                                             |
|      You have a (more or less) 'large supercell' and for larger cells       |
|      it might be more efficient to use real space projection opertators     |
|      So try LREAL= Auto  in the INCAR   file.                               |
|      Mind:          For very  accurate calculation you might also keep the  |
|      reciprocal projection scheme          (i.e. LREAL=.FALSE.)             |
|                                                                             |
 ----------------------------------------------------------------------------- 

  PAW_PBE Al 04Jan2001                  :
 energy of atom  1       EATOM=  -53.5387
 kinetic energy error for atom=    0.0005 (will be added to EATOM!!)
  PAW_PBE Mn 06Sep2000                  :
 energy of atom  2       EATOM= -416.7541
 kinetic energy error for atom=    0.0080 (will be added to EATOM!!)
 
 
 POSCAR: NewRef: 18, @ ['Mn', array([1.37502469, 
  positions in cartesian coordinates
  velocities in cartesian coordinates
  No initial velocities read in
 exchange correlation table for  LEXCH =        8
   RHO(1)=    0.500       N(1)  =     2000
   RHO(2)=  100.500       N(2)  =     4000
 


--------------------------------------------------------------------------------------------------------


 ion  position               nearest neighbor table
   1  0.000  0.000  0.000-  20 2.61  24 2.61  32 2.61  36 2.61  31 2.61  23 2.61  35 2.61  19 2.61
                             3 2.75   7 2.75   5 2.75  13 2.75
   2  0.000  0.000  0.500-  19 2.61  23 2.61  31 2.61  35 2.61  20 2.61  32 2.61  24 2.61  36 2.61
                             4 2.75   8 2.75   6 2.75  14 2.75
   3  0.000  0.333  0.000-  20 2.61  32 2.61  22 2.61  34 2.61  19 2.61  31 2.61  33 2.61  21 2.61
                             9 2.75   1 2.75   5 2.75  15 2.75
   4  0.000  0.333  0.500-  19 2.61  31 2.61  21 2.61  33 2.61  32 2.61  20 2.61  22 2.61  34 2.61
                            10 2.75   2 2.75   6 2.75  16 2.75
   5  0.000  0.667  0.000-  22 2.61  34 2.61  24 2.61  36 2.61  21 2.61  33 2.61  35 2.61  23 2.61
                             3 2.75  11 2.75   1 2.75  17 2.75
   6  0.000  0.667  0.500-  21 2.61  33 2.61  23 2.61  35 2.61  34 2.61  22 2.61  24 2.61  36 2.61
                             4 2.75  12 2.75   2 2.75  18 2.75
   7  0.333  0.000  0.000-  20 2.61  24 2.61  26 2.61  30 2.61  23 2.61  19 2.61  29 2.61  25 2.61
                            13 2.75   1 2.75   9 2.75  11 2.75
   8  0.333  0.000  0.500-  19 2.61  23 2.61  25 2.61  29 2.61  20 2.61  24 2.61  26 2.61  30 2.61
                            14 2.75   2 2.75  10 2.75  12 2.75
   9  0.333  0.333  0.000-  20 2.61  22 2.61  26 2.61  19 2.61  28 2.61  21 2.61  25 2.61  27 2.61
                             3 2.75   7 2.75  11 2.75  15 2.75
  10  0.333  0.333  0.500-  19 2.61  21 2.61  25 2.61  20 2.61  27 2.61  26 2.61  22 2.61  28 2.61
                             4 2.75   8 2.75  12 2.75  16 2.75
  11  0.333  0.667  0.000-  22 2.61  24 2.61  28 2.61  21 2.61  30 2.61  23 2.61  27 2.61  29 2.61
                            17 2.75   5 2.75   9 2.75   7 2.75
  12  0.333  0.667  0.500-  21 2.61  23 2.61  27 2.61  22 2.61  29 2.61  28 2.61  24 2.61  30 2.61
                            18 2.75   6 2.75  10 2.75   8 2.75
  13  0.667  0.000  0.000-  26 2.61  30 2.61  32 2.61  36 2.61  29 2.61  25 2.61  35 2.61  31 2.61
                             7 2.75  15 2.75   1 2.75  17 2.75
  14  0.667  0.000  0.500-  25 2.61  29 2.61  31 2.61  35 2.61  26 2.61  30 2.61  32 2.61  36 2.61
                             8 2.75  16 2.75   2 2.75  18 2.75
  15  0.667  0.333  0.000-  26 2.61  28 2.61  32 2.61  25 2.61  34 2.61  27 2.61  31 2.61  33 2.61
                            17 2.75   9 2.75  13 2.75   3 2.75
  16  0.667  0.333  0.500-  25 2.61  27 2.61  31 2.61  26 2.61  33 2.61  32 2.61  28 2.61  34 2.61
                            18 2.75  10 2.75  14 2.75   4 2.75
  17  0.667  0.667  0.000-  28 2.61  30 2.61  34 2.61  27 2.61  36 2.61  29 2.61  33 2.61  35 2.61
                            11 2.75  15 2.75  13 2.75   5 2.75
  18  0.667  0.667  0.500-  27 2.61  29 2.61  33 2.61  28 2.61  35 2.61  34 2.61  30 2.61  36 2.61
                            12 2.75  16 2.75  14 2.75   6 2.75
  19  0.167  0.167  0.250-  10 2.61   8 2.61   4 2.61   9 2.61   2 2.61   7 2.61   3 2.61   1 2.61
                            21 2.75  25 2.75  23 2.75  31 2.75
  20  0.167  0.167  0.750-   9 2.61   7 2.61   3 2.61  10 2.61   1 2.61   4 2.61   8 2.61   2 2.61
                            22 2.75  26 2.75  24 2.75  32 2.75
  21  0.167  0.500  0.250-  12 2.61  10 2.61   6 2.61  11 2.61   4 2.61   9 2.61   5 2.61   3 2.61
                            19 2.75  23 2.75  27 2.75  33 2.75
  22  0.167  0.500  0.750-  11 2.61   9 2.61   5 2.61  12 2.61   3 2.61   6 2.61  10 2.61   4 2.61
                            20 2.75  24 2.75  28 2.75  34 2.75
  23  0.167  0.833  0.250-   8 2.61  12 2.61   2 2.61   6 2.61  11 2.61   7 2.61   5 2.61   1 2.61
                            21 2.75  29 2.75  19 2.75  35 2.75
  24  0.167  0.833  0.750-   7 2.61  11 2.61   1 2.61   5 2.61   8 2.61  12 2.61   2 2.61   6 2.61
                            22 2.75  30 2.75  20 2.75  36 2.75
  25  0.500  0.167  0.250-  16 2.61  14 2.61  10 2.61  15 2.61   8 2.61  13 2.61   9 2.61   7 2.61
                            19 2.75  27 2.75  31 2.75  29 2.75
  26  0.500  0.167  0.750-  15 2.61  13 2.61   9 2.61  16 2.61   7 2.61  10 2.61  14 2.61   8 2.61
                            20 2.75  28 2.75  32 2.75  30 2.75
  27  0.500  0.500  0.250-  18 2.61  16 2.61  12 2.61  17 2.61  10 2.61  15 2.61  11 2.61   9 2.61
                            21 2.75  25 2.75  29 2.75  33 2.75
  28  0.500  0.500  0.750-  17 2.61  15 2.61  11 2.61  18 2.61   9 2.61  12 2.61  16 2.61  10 2.61
                            22 2.75  26 2.75  30 2.75  34 2.75
  29  0.500  0.833  0.250-  14 2.61  18 2.61   8 2.61  12 2.61  17 2.61  13 2.61  11 2.61   7 2.61
                            23 2.75  27 2.75  35 2.75  25 2.75
  30  0.500  0.833  0.750-  13 2.61  17 2.61   7 2.61  11 2.61  14 2.61  18 2.61   8 2.61  12 2.61
                            24 2.75  28 2.75  36 2.75  26 2.75
  31  0.833  0.167  0.250-   4 2.61  16 2.61  14 2.61   2 2.61  15 2.61   3 2.61  13 2.61   1 2.61
                            25 2.75  33 2.75  19 2.75  35 2.75
  32  0.833  0.167  0.750-   3 2.61  15 2.61  13 2.61   1 2.61   4 2.61  16 2.61   2 2.61  14 2.61
                            26 2.75  34 2.75  20 2.75  36 2.75
  33  0.833  0.500  0.250-   6 2.61  18 2.61  16 2.61   4 2.61  17 2.61   5 2.61  15 2.61   3 2.61
                            27 2.75  31 2.75  35 2.75  21 2.75
  34  0.833  0.500  0.750-   5 2.61  17 2.61  15 2.61   3 2.61   6 2.61  18 2.61   4 2.61  16 2.61
                            28 2.75  32 2.75  36 2.75  22 2.75
  35  0.833  0.833  0.250-   2 2.61   6 2.61  14 2.61  18 2.61  13 2.61   5 2.61  17 2.61   1 2.61
                            29 2.75  33 2.75  31 2.75  23 2.75
  36  0.833  0.833  0.750-   1 2.61   5 2.61  13 2.61  17 2.61   2 2.61  14 2.61   6 2.61  18 2.61
                            30 2.75  34 2.75  32 2.75  24 2.75
 
  LATTYP: Found a simple tetragonal cell.
 ALAT       =     8.2501481662
 C/A-ratio  =     0.8428059861
  
  Lattice vectors:
  
 A1 = (   8.2501481662,   0.0000000000,   0.0000000000)
 A2 = (   0.0000000000,   8.2501481662,   0.0000000000)
 A3 = (   0.0000000000,   0.0000000000,   6.9532742610)


Analysis of symmetry for initial positions (statically):
=====================================================================
 Subroutine PRICEL returns following result:
 
  LATTYP: Found a simple tetragonal cell.
 ALAT       =     2.7500493888
 C/A-ratio  =     1.2642089792
  
  Lattice vectors:
  
 A1 = (   2.7500493888,   0.0000000000,   0.0000000000)
 A2 = (   0.0000000000,   2.7500493888,   0.0000000000)
 A3 = (   0.0000000000,   0.0000000000,   3.4766371305)
 
  18 primitive cells build up your supercell.
 

 Routine SETGRP: Setting up the symmetry group for a 
 simple tetragonal supercell.


 Subroutine GETGRP returns: Found 16 space group operations
 (whereof 16 operations were pure point group operations)
 out of a pool of 16 trial point group operations.


The static configuration has the point symmetry D_4h.


Analysis of symmetry for dynamics (positions and initial velocities):
=====================================================================
 Subroutine PRICEL returns following result:
 
  LATTYP: Found a simple tetragonal cell.
 ALAT       =     2.7500493888
 C/A-ratio  =     1.2642089792
  
  Lattice vectors:
  
 A1 = (   2.7500493888,   0.0000000000,   0.0000000000)
 A2 = (   0.0000000000,   2.7500493888,   0.0000000000)
 A3 = (   0.0000000000,   0.0000000000,   3.4766371305)
 
  18 primitive cells build up your supercell.
 

 Routine SETGRP: Setting up the symmetry group for a 
 simple tetragonal supercell.


 Subroutine GETGRP returns: Found 16 space group operations
 (whereof 16 operations were pure point group operations)
 out of a pool of 16 trial point group operations.


The dynamic configuration has the point symmetry D_4h.


Analysis of structural, dynamic, and magnetic symmetry:
=====================================================================
 Subroutine PRICEL returns:
 Original cell was already a primitive cell.
 

 Routine SETGRP: Setting up the symmetry group for a 
 simple tetragonal supercell.


 Subroutine GETGRP returns: Found  2 space group operations
 (whereof  1 operations were pure point group operations)
 out of a pool of 16 trial point group operations.


The magnetic configuration has the point symmetry C_1 .
 The point group associated with its full space group is C_1h.


 Subroutine INISYM returns: Found  2 space group operations
 (whereof  1 operations are pure point group operations),
 and found     1 'primitive' translations

 
 
 KPOINTS: automatic KPOINTS                       

Automatic generation of k-mesh.
 generate k-points for:    5    5    6
Space group operators:
 irot       det(A)        alpha          n_x          n_y          n_z        tau_x        tau_y        tau_z
    1     1.000000     0.000001     1.000000     0.000000     0.000000     0.000000     0.000000     0.000000
    2    -1.000000   179.999999     0.000000     0.000000     1.000000     0.000000     0.000000     0.500000
 
 Subroutine IBZKPT returns following result:
 ===========================================
 
 Found     52 irreducible k-points:
 
 Following reciprocal coordinates:
            Coordinates               Weight
  0.000000  0.000000  0.000000      1.000000
  0.200000  0.000000  0.000000      2.000000
  0.400000  0.000000  0.000000      2.000000
  0.000000  0.200000  0.000000      2.000000
  0.200000  0.200000  0.000000      2.000000
  0.400000  0.200000  0.000000      2.000000
 -0.400000  0.200000  0.000000      2.000000
 -0.200000  0.200000  0.000000      2.000000
  0.000000  0.400000  0.000000      2.000000
  0.200000  0.400000  0.000000      2.000000
  0.400000  0.400000  0.000000      2.000000
 -0.400000  0.400000  0.000000      2.000000
 -0.200000  0.400000  0.000000      2.000000
  0.000000  0.000000  0.166667      2.000000
  0.200000  0.000000  0.166667      4.000000
  0.400000  0.000000  0.166667      4.000000
  0.000000  0.200000  0.166667      4.000000
  0.200000  0.200000  0.166667      4.000000
  0.400000  0.200000  0.166667      4.000000
 -0.400000  0.200000  0.166667      4.000000
 -0.200000  0.200000  0.166667      4.000000
  0.000000  0.400000  0.166667      4.000000
  0.200000  0.400000  0.166667      4.000000
  0.400000  0.400000  0.166667      4.000000
 -0.400000  0.400000  0.166667      4.000000
 -0.200000  0.400000  0.166667      4.000000
  0.000000  0.000000  0.333333      2.000000
  0.200000  0.000000  0.333333      4.000000
  0.400000  0.000000  0.333333      4.000000
  0.000000  0.200000  0.333333      4.000000
  0.200000  0.200000  0.333333      4.000000
  0.400000  0.200000  0.333333      4.000000
 -0.400000  0.200000  0.333333      4.000000
 -0.200000  0.200000  0.333333      4.000000
  0.000000  0.400000  0.333333      4.000000
  0.200000  0.400000  0.333333      4.000000
  0.400000  0.400000  0.333333      4.000000
 -0.400000  0.400000  0.333333      4.000000
 -0.200000  0.400000  0.333333      4.000000
  0.000000  0.000000  0.500000      1.000000
  0.200000  0.000000  0.500000      2.000000
  0.400000  0.000000  0.500000      2.000000
  0.000000  0.200000  0.500000      2.000000
  0.200000  0.200000  0.500000      2.000000
  0.400000  0.200000  0.500000      2.000000
 -0.400000  0.200000  0.500000      2.000000
 -0.200000  0.200000  0.500000      2.000000
  0.000000  0.400000  0.500000      2.000000
  0.200000  0.400000  0.500000      2.000000
  0.400000  0.400000  0.500000      2.000000
 -0.400000  0.400000  0.500000      2.000000
 -0.200000  0.400000  0.500000      2.000000
 
 Following cartesian coordinates:
            Coordinates               Weight
  0.000000  0.000000  0.000000      1.000000
  0.024242  0.000000  0.000000      2.000000
  0.048484  0.000000  0.000000      2.000000
  0.000000  0.024242  0.000000      2.000000
  0.024242  0.024242  0.000000      2.000000
  0.048484  0.024242  0.000000      2.000000
 -0.048484  0.024242  0.000000      2.000000
 -0.024242  0.024242  0.000000      2.000000
  0.000000  0.048484  0.000000      2.000000
  0.024242  0.048484  0.000000      2.000000
  0.048484  0.048484  0.000000      2.000000
 -0.048484  0.048484  0.000000      2.000000
 -0.024242  0.048484  0.000000      2.000000
  0.000000  0.000000  0.023970      2.000000
  0.024242  0.000000  0.023970      4.000000
  0.048484  0.000000  0.023970      4.000000
  0.000000  0.024242  0.023970      4.000000
  0.024242  0.024242  0.023970      4.000000
  0.048484  0.024242  0.023970      4.000000
 -0.048484  0.024242  0.023970      4.000000
 -0.024242  0.024242  0.023970      4.000000
  0.000000  0.048484  0.023970      4.000000
  0.024242  0.048484  0.023970      4.000000
  0.048484  0.048484  0.023970      4.000000
 -0.048484  0.048484  0.023970      4.000000
 -0.024242  0.048484  0.023970      4.000000
  0.000000  0.000000  0.047939      2.000000
  0.024242  0.000000  0.047939      4.000000
  0.048484  0.000000  0.047939      4.000000
  0.000000  0.024242  0.047939      4.000000
  0.024242  0.024242  0.047939      4.000000
  0.048484  0.024242  0.047939      4.000000
 -0.048484  0.024242  0.047939      4.000000
 -0.024242  0.024242  0.047939      4.000000
  0.000000  0.048484  0.047939      4.000000
  0.024242  0.048484  0.047939      4.000000
  0.048484  0.048484  0.047939      4.000000
 -0.048484  0.048484  0.047939      4.000000
 -0.024242  0.048484  0.047939      4.000000
  0.000000  0.000000  0.071909      1.000000
  0.024242  0.000000  0.071909      2.000000
  0.048484  0.000000  0.071909      2.000000
  0.000000  0.024242  0.071909      2.000000
  0.024242  0.024242  0.071909      2.000000
  0.048484  0.024242  0.071909      2.000000
 -0.048484  0.024242  0.071909      2.000000
 -0.024242  0.024242  0.071909      2.000000
  0.000000  0.048484  0.071909      2.000000
  0.024242  0.048484  0.071909      2.000000
  0.048484  0.048484  0.071909      2.000000
 -0.048484  0.048484  0.071909      2.000000
 -0.024242  0.048484  0.071909      2.000000
 


--------------------------------------------------------------------------------------------------------




 Dimension of arrays:
   k-points           NKPTS =     52   k-points in BZ     NKDIM =     52   number of bands    NBANDS=    110
   number of dos      NEDOS =    301   number of ions     NIONS =     36
   non local maximal  LDIM  =      6   non local SUM 2l+1 LMDIM =     18
   total plane-waves  NPLWV = 139968
   max r-space proj   IRMAX =      1   max aug-charges    IRDMAX=  92271
   dimension x,y,z NGX =    54 NGY =   54 NGZ =   48
   dimension x,y,z NGXF=   108 NGYF=  108 NGZF=   96
   support grid    NGXF=   216 NGYF=  216 NGZF=  192
   ions per type =              18  18
   NGX,Y,Z   is equivalent  to a cutoff of  10.88, 10.88, 11.48 a.u.
   NGXF,Y,Z  is equivalent  to a cutoff of  21.76, 21.76, 22.95 a.u.

 SYSTEM =  AlMn_pv                                 
 POSCAR =  NewRef: 18, @ ['Mn', array([1.37502469, 

 Startparameter for this run:
   NWRITE =      2    write-flag & timer
   PREC   = accura    normal or accurate (medium, high low for compatibility)
   ISTART =      0    job   : 0-new  1-cont  2-samecut
   ICHARG =      2    charge: 1-file 2-atom 10-const
   ISPIN  =      2    spin polarized calculation?
   LNONCOLLINEAR =      F non collinear calculations
   LSORBIT =      F    spin-orbit coupling
   INIWAV =      1    electr: 0-lowe 1-rand  2-diag
   LASPH  =      F    aspherical Exc in radial PAW
   METAGGA=      F    non-selfconsistent MetaGGA calc.

 Electronic Relaxation 1
   ENCUT  =  404.8 eV  29.75 Ry    5.45 a.u.  13.53 13.53 11.41*2*pi/ulx,y,z
   ENINI  =  404.8     initial cutoff
   ENAUG  =  500.7 eV  augmentation charge cutoff
   NELM   =    100;   NELMIN=  4; NELMDL= -8     # of ELM steps 
   EDIFF  = 0.1E-06   stopping-criterion for ELM
   LREAL  =      F    real-space projection
   NLSPLINE    = F    spline interpolate recip. space projectors
   LCOMPAT=      F    compatible to vasp.4.4
   GGA_COMPAT  = T    GGA compatible to vasp.4.4-vasp.4.6
   LMAXPAW     = -100 max onsite density
   LMAXMIX     =    2 max onsite mixed and CHGCAR
   VOSKOWN=      0    Vosko Wilk Nusair interpolation
   ROPT   =    0.00000   0.00000
 Ionic relaxation
   EDIFFG = 0.1E-05   stopping-criterion for IOM
   NSW    =      0    number of steps for IOM
   NBLOCK =      1;   KBLOCK =      1    inner block; outer block 
   IBRION =     -1    ionic relax: 0-MD 1-quasi-New 2-CG
   NFREE  =      0    steps in history (QN), initial steepest desc. (CG)
   ISIF   =      2    stress and relaxation
   IWAVPR =     10    prediction:  0-non 1-charg 2-wave 3-comb
   ISYM   =      2    0-nonsym 1-usesym 2-fastsym
   LCORR  =      T    Harris-Foulkes like correction to forces

   POTIM  = 0.2000    time-step for ionic-motion
   TEIN   =    0.0    initial temperature
   TEBEG  =    0.0;   TEEND  =   0.0 temperature during run
   SMASS  =  -3.00    Nose mass-parameter (am)
   estimated Nose-frequenzy (Omega)   =  0.10E-29 period in steps =****** mass=  -0.156E-26a.u.
   SCALEE = 1.0000    scale energy and forces
   NPACO  =    256;   APACO  = 16.0  distance and # of slots for P.C.
   PSTRESS=    0.0 pullay stress

  Mass of Ions in am
   POMASS =  26.98 54.94
  Ionic Valenz
   ZVAL   =   3.00  7.00
  Atomic Wigner-Seitz radii
   RWIGS  =  -1.00 -1.00
  virtual crystal weights 
   VCA    =   1.00  1.00
   NELECT =     180.0000    total number of electrons
   NUPDOWN=      -1.0000    fix difference up-down

 DOS related values:
   EMIN   =  10.00;   EMAX   =-10.00  energy-range for DOS
   EFERMI =   0.00
   ISMEAR =     1;   SIGMA  =   0.20  broadening in eV -4-tet -1-fermi 0-gaus

 Electronic relaxation 2 (details)
   IALGO  =     58    algorithm
   LDIAG  =      T    sub-space diagonalisation (order eigenvalues)
   LSUBROT=      F    optimize rotation matrix (better conditioning)
   TURBO    =      0    0=normal 1=particle mesh
   IRESTART =      0    0=no restart 2=restart with 2 vectors
   NREBOOT  =      0    no. of reboots
   NMIN     =      0    reboot dimension
   EREF     =   0.00    reference energy to select bands
   IMIX   =      4    mixing-type and parameters
     AMIX     =   0.40;   BMIX     =  1.00
     AMIX_MAG =   1.60;   BMIX_MAG =  1.00
     AMIN     =   0.10
     WC   =   100.;   INIMIX=   1;  MIXPRE=   1;  MAXMIX= -45

 Intra band minimization:
   WEIMIN = 0.0000     energy-eigenvalue tresh-hold
   EBREAK =  0.23E-09  absolut break condition
   DEPER  =   0.30     relativ break condition  

   TIME   =   0.40     timestep for ELM

  volume/ion in A,a.u.               =      13.15        88.72
  Fermi-wavevector in a.u.,A,eV,Ry     =   1.186118  2.241439 19.141722  1.406877
  Thomas-Fermi vector in A             =   2.322298
 
 Write flags
   LWAVE        =      F    write WAVECAR
   LDOWNSAMPLE  =      F    k-point downsampling of WAVECAR
   LCHARG       =      F    write CHGCAR
   LVTOT        =      F    write LOCPOT, total local potential
   LVHAR        =      F    write LOCPOT, Hartree potential only
   LELF         =      F    write electronic localiz. function (ELF)
   LORBIT       =     10    0 simple, 1 ext, 2 COOP (PROOUT), +10 PAW based schemes


 Dipole corrections
   LMONO  =      F    monopole corrections only (constant potential shift)
   LDIPOL =      F    correct potential (dipole corrections)
   IDIPOL =      0    1-x, 2-y, 3-z, 4-all directions 
   EPSILON=  1.0000000 bulk dielectric constant

 Exchange correlation treatment:
   GGA     =    --    GGA type
   LEXCH   =     8    internal setting for exchange type
   VOSKOWN=      0    Vosko Wilk Nusair interpolation
   LHFCALC =     F    Hartree Fock is set to
   LHFONE  =     F    Hartree Fock one center treatment
   AEXX    =    0.0000 exact exchange contribution

 Linear response parameters
   LEPSILON=     F    determine dielectric tensor
   LRPA    =     F    only Hartree local field effects (RPA)
   LNABLA  =     F    use nabla operator in PAW spheres
   LVEL    =     F    velocity operator in full k-point grid
   LINTERFAST=   F  fast interpolation
   KINTER  =     0    interpolate to denser k-point grid
   CSHIFT  =0.1000    complex shift for real part using Kramers Kronig
   OMEGAMAX=  -1.0    maximum frequency
   DEG_THRESHOLD= 0.2000000E-02 threshold for treating states as degnerate
   RTIME   =   -0.100 relaxation time in fs
  (WPLASMAI=    0.000 imaginary part of plasma frequency in eV, 0.658/RTIME)
   DFIELD  = 0.0000000 0.0000000 0.0000000 field for delta impulse in time
 
 Orbital magnetization related:
   ORBITALMAG=     F  switch on orbital magnetization
   LCHIMAG   =     F  perturbation theory with respect to B field
   DQ        =  0.001000  dq finite difference perturbation B field
   LLRAUG    =     F  two centre corrections for induced B field



--------------------------------------------------------------------------------------------------------


 Static calculation
 charge density and potential will be updated during run
 spin polarized calculation
 Conjugate gradient for all bands (Freysoldt, et al. PRB 79, 241103 (2009))
 preconditioned conjugated gradient                                        
 perform sub-space diagonalisation
    before iterative eigenvector-optimisation
 modified Broyden-mixing scheme, WC =      100.0
 initial mixing is a Kerker type mixing with AMIX =  0.4000 and BMIX =      1.0000
 Hartree-type preconditioning will be used
 using additional bands           20
 reciprocal scheme for non local part
 use partial core corrections
 no Harris-corrections to forces 
 use gradient corrections 
 use of overlap-Matrix (Vanderbilt PP)
 Methfessel and Paxton  Order N= 1 SIGMA  =   0.20


--------------------------------------------------------------------------------------------------------


  energy-cutoff  :      404.80
  volume of cell :      473.27
      direct lattice vectors                 reciprocal lattice vectors
     8.250148166  0.000000000  0.000000000     0.121209944  0.000000000  0.000000000
     0.000000000  8.250148166  0.000000000     0.000000000  0.121209944  0.000000000
     0.000000000  0.000000000  6.953274261     0.000000000  0.000000000  0.143817137

  length of vectors
     8.250148166  8.250148166  6.953274261     0.121209944  0.121209944  0.143817137


 
 k-points in units of 2pi/SCALE and weight: automatic KPOINTS                       
   0.00000000  0.00000000  0.00000000       0.007
   0.02424199  0.00000000  0.00000000       0.013
   0.04848398  0.00000000  0.00000000       0.013
   0.00000000  0.02424199  0.00000000       0.013
   0.02424199  0.02424199  0.00000000       0.013
   0.04848398  0.02424199  0.00000000       0.013
  -0.04848398  0.02424199  0.00000000       0.013
  -0.02424199  0.02424199  0.00000000       0.013
   0.00000000  0.04848398  0.00000000       0.013
   0.02424199  0.04848398  0.00000000       0.013
   0.04848398  0.04848398  0.00000000       0.013
  -0.04848398  0.04848398  0.00000000       0.013
  -0.02424199  0.04848398  0.00000000       0.013
   0.00000000  0.00000000  0.02396952       0.013
   0.02424199  0.00000000  0.02396952       0.027
   0.04848398  0.00000000  0.02396952       0.027
   0.00000000  0.02424199  0.02396952       0.027
   0.02424199  0.02424199  0.02396952       0.027
   0.04848398  0.02424199  0.02396952       0.027
  -0.04848398  0.02424199  0.02396952       0.027
  -0.02424199  0.02424199  0.02396952       0.027
   0.00000000  0.04848398  0.02396952       0.027
   0.02424199  0.04848398  0.02396952       0.027
   0.04848398  0.04848398  0.02396952       0.027
  -0.04848398  0.04848398  0.02396952       0.027
  -0.02424199  0.04848398  0.02396952       0.027
   0.00000000  0.00000000  0.04793905       0.013
   0.02424199  0.00000000  0.04793905       0.027
   0.04848398  0.00000000  0.04793905       0.027
   0.00000000  0.02424199  0.04793905       0.027
   0.02424199  0.02424199  0.04793905       0.027
   0.04848398  0.02424199  0.04793905       0.027
  -0.04848398  0.02424199  0.04793905       0.027
  -0.02424199  0.02424199  0.04793905       0.027
   0.00000000  0.04848398  0.04793905       0.027
   0.02424199  0.04848398  0.04793905       0.027
   0.04848398  0.04848398  0.04793905       0.027
  -0.04848398  0.04848398  0.04793905       0.027
  -0.02424199  0.04848398  0.04793905       0.027
   0.00000000  0.00000000  0.07190857       0.007
   0.02424199  0.00000000  0.07190857       0.013
   0.04848398  0.00000000  0.07190857       0.013
   0.00000000  0.02424199  0.07190857       0.013
   0.02424199  0.02424199  0.07190857       0.013
   0.04848398  0.02424199  0.07190857       0.013
  -0.04848398  0.02424199  0.07190857       0.013
  -0.02424199  0.02424199  0.07190857       0.013
   0.00000000  0.04848398  0.07190857       0.013
   0.02424199  0.04848398  0.07190857       0.013
   0.04848398  0.04848398  0.07190857       0.013
  -0.04848398  0.04848398  0.07190857       0.013
  -0.02424199  0.04848398  0.07190857       0.013
 
 k-points in reciprocal lattice and weights: automatic KPOINTS                       
   0.00000000  0.00000000  0.00000000       0.007
   0.20000000  0.00000000  0.00000000       0.013
   0.40000000  0.00000000  0.00000000       0.013
   0.00000000  0.20000000  0.00000000       0.013
   0.20000000  0.20000000  0.00000000       0.013
   0.40000000  0.20000000  0.00000000       0.013
  -0.40000000  0.20000000  0.00000000       0.013
  -0.20000000  0.20000000  0.00000000       0.013
   0.00000000  0.40000000  0.00000000       0.013
   0.20000000  0.40000000  0.00000000       0.013
   0.40000000  0.40000000  0.00000000       0.013
  -0.40000000  0.40000000  0.00000000       0.013
  -0.20000000  0.40000000  0.00000000       0.013
   0.00000000  0.00000000  0.16666667       0.013
   0.20000000  0.00000000  0.16666667       0.027
   0.40000000  0.00000000  0.16666667       0.027
   0.00000000  0.20000000  0.16666667       0.027
   0.20000000  0.20000000  0.16666667       0.027
   0.40000000  0.20000000  0.16666667       0.027
  -0.40000000  0.20000000  0.16666667       0.027
  -0.20000000  0.20000000  0.16666667       0.027
   0.00000000  0.40000000  0.16666667       0.027
   0.20000000  0.40000000  0.16666667       0.027
   0.40000000  0.40000000  0.16666667       0.027
  -0.40000000  0.40000000  0.16666667       0.027
  -0.20000000  0.40000000  0.16666667       0.027
   0.00000000  0.00000000  0.33333333       0.013
   0.20000000  0.00000000  0.33333333       0.027
   0.40000000  0.00000000  0.33333333       0.027
   0.00000000  0.20000000  0.33333333       0.027
   0.20000000  0.20000000  0.33333333       0.027
   0.40000000  0.20000000  0.33333333       0.027
  -0.40000000  0.20000000  0.33333333       0.027
  -0.20000000  0.20000000  0.33333333       0.027
   0.00000000  0.40000000  0.33333333       0.027
   0.20000000  0.40000000  0.33333333       0.027
   0.40000000  0.40000000  0.33333333       0.027
  -0.40000000  0.40000000  0.33333333       0.027
  -0.20000000  0.40000000  0.33333333       0.027
   0.00000000  0.00000000  0.50000000       0.007
   0.20000000  0.00000000  0.50000000       0.013
   0.40000000  0.00000000  0.50000000       0.013
   0.00000000  0.20000000  0.50000000       0.013
   0.20000000  0.20000000  0.50000000       0.013
   0.40000000  0.20000000  0.50000000       0.013
  -0.40000000  0.20000000  0.50000000       0.013
  -0.20000000  0.20000000  0.50000000       0.013
   0.00000000  0.40000000  0.50000000       0.013
   0.20000000  0.40000000  0.50000000       0.013
   0.40000000  0.40000000  0.50000000       0.013
  -0.40000000  0.40000000  0.50000000       0.013
  -0.20000000  0.40000000  0.50000000       0.013
 
 position of ions in fractional coordinates (direct lattice) 
   0.00000000  0.00000000  0.00000000
   0.00000000  0.00000000  0.50000000
   0.00000000  0.33333333  0.00000000
   0.00000000  0.33333333  0.50000000
   0.00000000  0.66666667  0.00000000
   0.00000000  0.66666667  0.50000000
   0.33333333  0.00000000  0.00000000
   0.33333333  0.00000000  0.50000000
   0.33333333  0.33333333  0.00000000
   0.33333333  0.33333333  0.50000000
   0.33333333  0.66666667  0.00000000
   0.33333333  0.66666667  0.50000000
   0.66666667  0.00000000  0.00000000
   0.66666667  0.00000000  0.50000000
   0.66666667  0.33333333  0.00000000
   0.66666667  0.33333333  0.50000000
   0.66666667  0.66666667  0.00000000
   0.66666667  0.66666667  0.50000000
   0.16666667  0.16666667  0.25000000
   0.16666667  0.16666667  0.75000000
   0.16666667  0.50000000  0.25000000
   0.16666667  0.50000000  0.75000000
   0.16666667  0.83333333  0.25000000
   0.16666667  0.83333333  0.75000000
   0.50000000  0.16666667  0.25000000
   0.50000000  0.16666667  0.75000000
   0.50000000  0.50000000  0.25000000
   0.50000000  0.50000000  0.75000000
   0.50000000  0.83333333  0.25000000
   0.50000000  0.83333333  0.75000000
   0.83333333  0.16666667  0.25000000
   0.83333333  0.16666667  0.75000000
   0.83333333  0.50000000  0.25000000
   0.83333333  0.50000000  0.75000000
   0.83333333  0.83333333  0.25000000
   0.83333333  0.83333333  0.75000000
 
 position of ions in cartesian coordinates  (Angst):
   0.00000000  0.00000000  0.00000000
   0.00000000  0.00000000  3.47663713
   0.00000000  2.75004939  0.00000000
   0.00000000  2.75004939  3.47663713
   0.00000000  5.50009878  0.00000000
   0.00000000  5.50009878  3.47663713
   2.75004939  0.00000000  0.00000000
   2.75004939  0.00000000  3.47663713
   2.75004939  2.75004939  0.00000000
   2.75004939  2.75004939  3.47663713
   2.75004939  5.50009878  0.00000000
   2.75004939  5.50009878  3.47663713
   5.50009878  0.00000000  0.00000000
   5.50009878  0.00000000  3.47663713
   5.50009878  2.75004939  0.00000000
   5.50009878  2.75004939  3.47663713
   5.50009878  5.50009878  0.00000000
   5.50009878  5.50009878  3.47663713
   1.37502469  1.37502469  1.73831857
   1.37502469  1.37502469  5.21495570
   1.37502469  4.12507408  1.73831857
   1.37502469  4.12507408  5.21495570
   1.37502469  6.87512347  1.73831857
   1.37502469  6.87512347  5.21495570
   4.12507408  1.37502469  1.73831857
   4.12507408  1.37502469  5.21495570
   4.12507408  4.12507408  1.73831857
   4.12507408  4.12507408  5.21495570
   4.12507408  6.87512347  1.73831857
   4.12507408  6.87512347  5.21495570
   6.87512347  1.37502469  1.73831857
   6.87512347  1.37502469  5.21495570
   6.87512347  4.12507408  1.73831857
   6.87512347  4.12507408  5.21495570
   6.87512347  6.87512347  1.73831857
   6.87512347  6.87512347  5.21495570
 


--------------------------------------------------------------------------------------------------------


 k-point  1 :   0.0000 0.0000 0.0000  plane waves:    8799
 k-point  2 :   0.2000 0.0000 0.0000  plane waves:    8753
 k-point  3 :   0.4000 0.0000 0.0000  plane waves:    8757
 k-point  4 :   0.0000 0.2000 0.0000  plane waves:    8753
 k-point  5 :   0.2000 0.2000 0.0000  plane waves:    8767
 k-point  6 :   0.4000 0.2000 0.0000  plane waves:    8761
 k-point  7 :  -0.4000 0.2000 0.0000  plane waves:    8761
 k-point  8 :  -0.2000 0.2000 0.0000  plane waves:    8767
 k-point  9 :   0.0000 0.4000 0.0000  plane waves:    8757
 k-point 10 :   0.2000 0.4000 0.0000  plane waves:    8761
 k-point 11 :   0.4000 0.4000 0.0000  plane waves:    8731
 k-point 12 :  -0.4000 0.4000 0.0000  plane waves:    8731
 k-point 13 :  -0.2000 0.4000 0.0000  plane waves:    8761
 k-point 14 :   0.0000 0.0000 0.1667  plane waves:    8763
 k-point 15 :   0.2000 0.0000 0.1667  plane waves:    8771
 k-point 16 :   0.4000 0.0000 0.1667  plane waves:    8747
 k-point 17 :   0.0000 0.2000 0.1667  plane waves:    8771
 k-point 18 :   0.2000 0.2000 0.1667  plane waves:    8764
 k-point 19 :   0.4000 0.2000 0.1667  plane waves:    8768
 k-point 20 :  -0.4000 0.2000 0.1667  plane waves:    8768
 k-point 21 :  -0.2000 0.2000 0.1667  plane waves:    8764
 k-point 22 :   0.0000 0.4000 0.1667  plane waves:    8747
 k-point 23 :   0.2000 0.4000 0.1667  plane waves:    8768
 k-point 24 :   0.4000 0.4000 0.1667  plane waves:    8740
 k-point 25 :  -0.4000 0.4000 0.1667  plane waves:    8740
 k-point 26 :  -0.2000 0.4000 0.1667  plane waves:    8768
 k-point 27 :   0.0000 0.0000 0.3333  plane waves:    8743
 k-point 28 :   0.2000 0.0000 0.3333  plane waves:    8736
 k-point 29 :   0.4000 0.0000 0.3333  plane waves:    8753
 k-point 30 :   0.0000 0.2000 0.3333  plane waves:    8736
 k-point 31 :   0.2000 0.2000 0.3333  plane waves:    8753
 k-point 32 :   0.4000 0.2000 0.3333  plane waves:    8743
 k-point 33 :  -0.4000 0.2000 0.3333  plane waves:    8743
 k-point 34 :  -0.2000 0.2000 0.3333  plane waves:    8753
 k-point 35 :   0.0000 0.4000 0.3333  plane waves:    8753
 k-point 36 :   0.2000 0.4000 0.3333  plane waves:    8743
 k-point 37 :   0.4000 0.4000 0.3333  plane waves:    8755
 k-point 38 :  -0.4000 0.4000 0.3333  plane waves:    8755
 k-point 39 :  -0.2000 0.4000 0.3333  plane waves:    8743
 k-point 40 :   0.0000 0.0000 0.5000  plane waves:    8742
 k-point 41 :   0.2000 0.0000 0.5000  plane waves:    8756
 k-point 42 :   0.4000 0.0000 0.5000  plane waves:    8744
 k-point 43 :   0.0000 0.2000 0.5000  plane waves:    8756
 k-point 44 :   0.2000 0.2000 0.5000  plane waves:    8762
 k-point 45 :   0.4000 0.2000 0.5000  plane waves:    8732
 k-point 46 :  -0.4000 0.2000 0.5000  plane waves:    8732
 k-point 47 :  -0.2000 0.2000 0.5000  plane waves:    8762
 k-point 48 :   0.0000 0.4000 0.5000  plane waves:    8744
 k-point 49 :   0.2000 0.4000 0.5000  plane waves:    8732
 k-point 50 :   0.4000 0.4000 0.5000  plane waves:    8736
 k-point 51 :  -0.4000 0.4000 0.5000  plane waves:    8736
 k-point 52 :  -0.2000 0.4000 0.5000  plane waves:    8732

 maximum and minimum number of plane-waves per node :      2210     2164

 maximum number of plane-waves:      8799
 maximum index in each direction: 
   IXMAX=   13   IYMAX=   13   IZMAX=   11
   IXMIN=  -13   IYMIN=  -13   IZMIN=  -11


 parallel 3D FFT for wavefunctions:
    minimum data exchange during FFTs selected (reduces bandwidth)
 parallel 3D FFT for charge:
    minimum data exchange during FFTs selected (reduces bandwidth)


 total amount of memory used by VASP MPI-rank0   740218. kBytes
=======================================================================

   base      :      30000. kBytes
   nonl-proj :      34307. kBytes
   fftplans  :      21726. kBytes
   grid      :      14732. kBytes
   one-center:        279. kBytes
   wavefun   :     639174. kBytes
 
     INWAV:  cpu time    0.0001: real time    0.0001
 Broyden mixing: mesh for mixing (old mesh)
   NGX = 27   NGY = 27   NGZ = 23
  (NGX  =108   NGY  =108   NGZ  = 96)
  gives a total of  16767 points

 initial charge density was supplied:
 charge density of overlapping atoms calculated
 number of electron     180.0000000 magnetization      -0.0000000
 keeping initial charge density in first step


--------------------------------------------------------------------------------------------------------


 Maximum index for augmentation-charges        11261 (set IRDMAX)


--------------------------------------------------------------------------------------------------------


 First call to EWALD:  gamma=   0.227
 Maximum number of real-space cells 3x 3x 3
 Maximum number of reciprocal cells 3x 3x 3

    FEWALD:  cpu time    0.0022: real time    0.0022


--------------------------------------- Iteration      1(   1)  ---------------------------------------


    POTLOK:  cpu time    0.2519: real time    0.2524
    SETDIJ:  cpu time    0.3190: real time    0.3199
    TRIAL :  cpu time   17.9829: real time   18.2284
    CORREC:  cpu time    0.0064: real time    0.0065
    --------------------------------------------
      LOOP:  cpu time   18.7766: real time   19.0301

 eigenvalue-minimisations  : 22880
 total energy-change (2. order) : 0.1352230E+04  (-0.5847830E+04)
 number of electron     180.0000000 magnetization      -0.0000000
 augmentation part      180.0000000 magnetization      -0.0000000

 Free energy of the ion-electron system (eV)
  ---------------------------------------------------
  alpha Z        PSCENC =       532.25742704
  Ewald energy   TEWEN  =     -8601.05107233
  -Hartree energ DENC   =     -1903.73857242
  -exchange      EXHF   =         0.00000000
  -V(xc)+E(xc)   XCENC  =      -664.67264870
  PAW double counting   =      8494.55058411    -7650.81563588
  entropy T*S    EENTRO =         0.00158738
  eigenvalues    EBANDS =      2680.58256945
  atomic energy  EATOM  =      8465.11600846
  ---------------------------------------------------
  free energy    TOTEN  =      1352.23024710 eV

  energy without entropy =     1352.22865973  energy(sigma->0) =     1352.22971798


--------------------------------------------------------------------------------------------------------




--------------------------------------- Iteration      1(   2)  ---------------------------------------


    TRIAL :  cpu time   18.0888: real time   18.2108
    CORREC:  cpu time    0.0080: real time    0.0089
    --------------------------------------------
      LOOP:  cpu time   18.1000: real time   18.2231

 eigenvalue-minimisations  : 22880
 total energy-change (2. order) :-0.1408321E+04  (-0.1378940E+04)
 number of electron     180.0000000 magnetization      -0.0000000
 augmentation part      180.0000000 magnetization      -0.0000000

 Free energy of the ion-electron system (eV)
  ---------------------------------------------------
  alpha Z        PSCENC =       532.25742704
  Ewald energy   TEWEN  =     -8601.05107233
  -Hartree energ DENC   =     -1903.73857242
  -exchange      EXHF   =         0.00000000
  -V(xc)+E(xc)   XCENC  =      -664.67264870
  PAW double counting   =      8494.55058411    -7650.81563588
  entropy T*S    EENTRO =        -0.00062779
  eigenvalues    EBANDS =      1272.26416839
  atomic energy  EATOM  =      8465.11600846
  ---------------------------------------------------
  free energy    TOTEN  =       -56.09036913 eV

  energy without entropy =      -56.08974133  energy(sigma->0) =      -56.09015986


--------------------------------------------------------------------------------------------------------




--------------------------------------- Iteration      1(   3)  ---------------------------------------


    TRIAL :  cpu time   25.0471: real time   25.8197
    CORREC:  cpu time    0.0101: real time    0.0111
    --------------------------------------------
      LOOP:  cpu time   25.0581: real time   25.8345

 eigenvalue-minimisations  : 35008
 total energy-change (2. order) :-0.1807038E+03  (-0.1636213E+03)
 number of electron     180.0000000 magnetization      -0.0000000
 augmentation part      180.0000000 magnetization      -0.0000000

 Free energy of the ion-electron system (eV)
  ---------------------------------------------------
  alpha Z        PSCENC =       532.25742704
  Ewald energy   TEWEN  =     -8601.05107233
  -Hartree energ DENC   =     -1903.73857242
  -exchange      EXHF   =         0.00000000
  -V(xc)+E(xc)   XCENC  =      -664.67264870
  PAW double counting   =      8494.55058411    -7650.81563588
  entropy T*S    EENTRO =         0.00151244
  eigenvalues    EBANDS =      1091.55819695
  atomic energy  EATOM  =      8465.11600846
  ---------------------------------------------------
  free energy    TOTEN  =      -236.79420033 eV

  energy without entropy =     -236.79571278  energy(sigma->0) =     -236.79470448


--------------------------------------------------------------------------------------------------------




--------------------------------------- Iteration      1(   4)  ---------------------------------------


    TRIAL :  cpu time   26.5160: real time   26.7686
    CORREC:  cpu time    0.0099: real time    0.0108
    --------------------------------------------
      LOOP:  cpu time   26.5267: real time   26.7831

 eigenvalue-minimisations  : 37424
 total energy-change (2. order) :-0.2913831E+02  (-0.2619947E+02)
 number of electron     180.0000000 magnetization      -0.0000000
 augmentation part      180.0000000 magnetization      -0.0000000

 Free energy of the ion-electron system (eV)
  ---------------------------------------------------
  alpha Z        PSCENC =       532.25742704
  Ewald energy   TEWEN  =     -8601.05107233
  -Hartree energ DENC   =     -1903.73857242
  -exchange      EXHF   =         0.00000000
  -V(xc)+E(xc)   XCENC  =      -664.67264870
  PAW double counting   =      8494.55058411    -7650.81563588
  entropy T*S    EENTRO =         0.00952585
  eigenvalues    EBANDS =      1062.41186956
  atomic energy  EATOM  =      8465.11600846
  ---------------------------------------------------
  free energy    TOTEN  =      -265.93251432 eV

  energy without entropy =     -265.94204017  energy(sigma->0) =     -265.93568960


--------------------------------------------------------------------------------------------------------




--------------------------------------- Iteration      1(   5)  ---------------------------------------


    TRIAL :  cpu time   28.3494: real time   28.4886
    CORREC:  cpu time    0.0098: real time    0.0100
    --------------------------------------------
      LOOP:  cpu time   28.3618: real time   28.5029

 eigenvalue-minimisations  : 38488
 total energy-change (2. order) :-0.3325251E+01  (-0.3164530E+01)
 number of electron     180.0000000 magnetization      -0.0000000
 augmentation part      180.0000000 magnetization      -0.0000000

 Free energy of the ion-electron system (eV)
  ---------------------------------------------------
  alpha Z        PSCENC =       532.25742704
  Ewald energy   TEWEN  =     -8601.05107233
  -Hartree energ DENC   =     -1903.73857242
  -exchange      EXHF   =         0.00000000
  -V(xc)+E(xc)   XCENC  =      -664.67264870
  PAW double counting   =      8494.55058411    -7650.81563588
  entropy T*S    EENTRO =         0.01370787
  eigenvalues    EBANDS =      1059.08243631
  atomic energy  EATOM  =      8465.11600846
  ---------------------------------------------------
  free energy    TOTEN  =      -269.25776554 eV

  energy without entropy =     -269.27147341  energy(sigma->0) =     -269.26233483


--------------------------------------------------------------------------------------------------------




--------------------------------------- Iteration      1(   6)  ---------------------------------------


    TRIAL :  cpu time   27.0015: real time   27.3129
    CORREC:  cpu time    0.0099: real time    0.0108
    --------------------------------------------
      LOOP:  cpu time   27.0123: real time   27.3273

 eigenvalue-minimisations  : 38224
 total energy-change (2. order) :-0.2907492E+00  (-0.2817712E+00)
 number of electron     180.0000000 magnetization      -0.0000000
 augmentation part      180.0000000 magnetization      -0.0000000

 Free energy of the ion-electron system (eV)
  ---------------------------------------------------
  alpha Z        PSCENC =       532.25742704
  Ewald energy   TEWEN  =     -8601.05107233
  -Hartree energ DENC   =     -1903.73857242
  -exchange      EXHF   =         0.00000000
  -V(xc)+E(xc)   XCENC  =      -664.67264870
  PAW double counting   =      8494.55058411    -7650.81563588
  entropy T*S    EENTRO =         0.01552311
  eigenvalues    EBANDS =      1058.78987184
  atomic energy  EATOM  =      8465.11600846
  ---------------------------------------------------
  free energy    TOTEN  =      -269.54851478 eV

  energy without entropy =     -269.56403788  energy(sigma->0) =     -269.55368915


--------------------------------------------------------------------------------------------------------




--------------------------------------- Iteration      1(   7)  ---------------------------------------


    TRIAL :  cpu time   28.2655: real time   28.3786
    CORREC:  cpu time    0.0100: real time    0.0101
    --------------------------------------------
      LOOP:  cpu time   28.2793: real time   28.3932

 eigenvalue-minimisations  : 39104
 total energy-change (2. order) :-0.3463279E-01  (-0.3394387E-01)
 number of electron     180.0000000 magnetization      -0.0000000
 augmentation part      180.0000000 magnetization      -0.0000000

 Free energy of the ion-electron system (eV)
  ---------------------------------------------------
  alpha Z        PSCENC =       532.25742704
  Ewald energy   TEWEN  =     -8601.05107233
  -Hartree energ DENC   =     -1903.73857242
  -exchange      EXHF   =         0.00000000
  -V(xc)+E(xc)   XCENC  =      -664.67264870
  PAW double counting   =      8494.55058411    -7650.81563588
  entropy T*S    EENTRO =         0.01616366
  eigenvalues    EBANDS =      1058.75459850
  atomic energy  EATOM  =      8465.11600846
  ---------------------------------------------------
  free energy    TOTEN  =      -269.58314757 eV

  energy without entropy =     -269.59931122  energy(sigma->0) =     -269.58853545


--------------------------------------------------------------------------------------------------------




--------------------------------------- Iteration      1(   8)  ---------------------------------------


    TRIAL :  cpu time   27.0193: real time   27.2384
    CORREC:  cpu time    0.0101: real time    0.0108
    CHARGE:  cpu time    1.0670: real time    1.0669
    --------------------------------------------
      LOOP:  cpu time   28.0985: real time   28.3217

 eigenvalue-minimisations  : 37528
 total energy-change (2. order) :-0.4060509E-02  (-0.4003282E-02)
 number of electron     179.9999997 magnetization       0.1592082
 augmentation part       42.5001606 magnetization       0.0846889

 Free energy of the ion-electron system (eV)
  ---------------------------------------------------
  alpha Z        PSCENC =       532.25742704
  Ewald energy   TEWEN  =     -8601.05107233
  -Hartree energ DENC   =     -1903.73857242
  -exchange      EXHF   =         0.00000000
  -V(xc)+E(xc)   XCENC  =      -664.67264870
  PAW double counting   =      8494.55058411    -7650.81563588
  entropy T*S    EENTRO =         0.01649490
  eigenvalues    EBANDS =      1058.75020674
  atomic energy  EATOM  =      8465.11600846
  ---------------------------------------------------
  free energy    TOTEN  =      -269.58720808 eV

  energy without entropy =     -269.60370298  energy(sigma->0) =     -269.59270638


--------------------------------------------------------------------------------------------------------




--------------------------------------- Iteration      1(   9)  ---------------------------------------


    POTLOK:  cpu time    0.2524: real time    0.2524
    SETDIJ:  cpu time    0.3444: real time    0.3444
    TRIAL :  cpu time    8.9685: real time    9.0404
    CORREC:  cpu time    3.3806: real time    3.3912
    CHARGE:  cpu time    1.0676: real time    1.0676
    --------------------------------------------
      LOOP:  cpu time   14.0303: real time   14.1130

 eigenvalue-minimisations  :     0
 total energy-change (2. order) : 0.2101629E+03  (-0.1444700E+03)
 number of electron     179.9999997 magnetization      -0.0313661
 augmentation part       53.8457115 magnetization      -0.0575521

 Free energy of the ion-electron system (eV)
  ---------------------------------------------------
  alpha Z        PSCENC =       532.25742704
  Ewald energy   TEWEN  =     -8601.05107233
  -Hartree energ DENC   =      -838.76978797
  -exchange      EXHF   =         0.00000000
  -V(xc)+E(xc)   XCENC  =      -694.76095449
  PAW double counting   =     12748.28126243   -11801.04978241
  entropy T*S    EENTRO =         0.00176999
  eigenvalues    EBANDS =       130.53608775
  atomic energy  EATOM  =      8465.11600846
  ---------------------------------------------------
  free energy    TOTEN  =       -59.42431662 eV

  energy without entropy =      -59.42608660  energy(sigma->0) =      -59.42490661


--------------------------------------------------------------------------------------------------------




--------------------------------------- Iteration      1(  10)  ---------------------------------------


    POTLOK:  cpu time    0.2475: real time    0.2475
    SETDIJ:  cpu time    0.3211: real time    0.3212
    TRIAL :  cpu time    8.9380: real time    8.9774
    CORREC:  cpu time    4.1059: real time    4.1352
    CHARGE:  cpu time    1.0691: real time    1.0705
    --------------------------------------------
      LOOP:  cpu time   14.7286: real time   14.7989

 eigenvalue-minimisations  :     0
 total energy-change (2. order) :-0.1454075E+03  (-0.1155007E+02)
 number of electron     179.9999996 magnetization      -0.1638938
 augmentation part       57.2802220 magnetization      -0.1136643

 Free energy of the ion-electron system (eV)
  ---------------------------------------------------
  alpha Z        PSCENC =       532.25742704
  Ewald energy   TEWEN  =     -8601.05107233
  -Hartree energ DENC   =     -1345.47532744
  -exchange      EXHF   =         0.00000000
  -V(xc)+E(xc)   XCENC  =      -677.63696906
  PAW double counting   =     13518.13488176   -12681.26248053
  entropy T*S    EENTRO =         0.00015571
  eigenvalues    EBANDS =       585.08394580
  atomic energy  EATOM  =      8465.11600846
  ---------------------------------------------------
  free energy    TOTEN  =      -204.83181633 eV

  energy without entropy =     -204.83197204  energy(sigma->0) =     -204.83186823


--------------------------------------------------------------------------------------------------------




--------------------------------------- Iteration      1(  11)  ---------------------------------------


    POTLOK:  cpu time    0.2479: real time    0.2479
    SETDIJ:  cpu time    0.3453: real time    0.3453
    TRIAL :  cpu time    9.5756: real time    9.5911
    CORREC:  cpu time    3.2828: real time    3.3950
    CHARGE:  cpu time    1.1112: real time    1.1114
    --------------------------------------------
      LOOP:  cpu time   14.5641: real time   14.6927

 eigenvalue-minimisations  :     0
 total energy-change (2. order) :-0.1183534E+02  (-0.8145505E+01)
 number of electron     179.9999996 magnetization      -0.3061785
 augmentation part       59.0972589 magnetization      -0.2049678

 Free energy of the ion-electron system (eV)
  ---------------------------------------------------
  alpha Z        PSCENC =       532.25742704
  Ewald energy   TEWEN  =     -8601.05107233
  -Hartree energ DENC   =     -1535.54800754
  -exchange      EXHF   =         0.00000000
  -V(xc)+E(xc)   XCENC  =      -670.81379667
  PAW double counting   =     14328.74587559   -13527.86526900
  entropy T*S    EENTRO =        -0.00342221
  eigenvalues    EBANDS =       792.49152196
  atomic energy  EATOM  =      8465.11600846
  ---------------------------------------------------
  free energy    TOTEN  =      -216.66715678 eV

  energy without entropy =     -216.66373457  energy(sigma->0) =     -216.66601604


--------------------------------------------------------------------------------------------------------




--------------------------------------- Iteration      1(  12)  ---------------------------------------


    POTLOK:  cpu time    0.2450: real time    0.2589
    SETDIJ:  cpu time    0.3162: real time    0.3162
    TRIAL :  cpu time    8.8888: real time    8.9919
    CORREC:  cpu time    3.3826: real time    3.4625
    CHARGE:  cpu time    1.0643: real time    1.0644
    --------------------------------------------
      LOOP:  cpu time   13.9164: real time   14.1142

 eigenvalue-minimisations  :     0
 total energy-change (2. order) :-0.8161106E+01  (-0.7370180E+01)
 number of electron     179.9999996 magnetization      -0.5287301
 augmentation part       58.5907337 magnetization      -0.3411446

 Free energy of the ion-electron system (eV)
  ---------------------------------------------------
  alpha Z        PSCENC =       532.25742704
  Ewald energy   TEWEN  =     -8601.05107233
  -Hartree energ DENC   =     -1684.45409010
  -exchange      EXHF   =         0.00000000
  -V(xc)+E(xc)   XCENC  =      -665.87116062
  PAW double counting   =     14501.97908133   -13709.30649459
  entropy T*S    EENTRO =        -0.00732104
  eigenvalues    EBANDS =       936.50545983
  atomic energy  EATOM  =      8465.11600846
  ---------------------------------------------------
  free energy    TOTEN  =      -224.82826319 eV

  energy without entropy =     -224.82094215  energy(sigma->0) =     -224.82582284


--------------------------------------------------------------------------------------------------------




--------------------------------------- Iteration      1(  13)  ---------------------------------------


    POTLOK:  cpu time    0.2472: real time    0.2472
    SETDIJ:  cpu time    0.3219: real time    0.3218
    TRIAL :  cpu time    8.9169: real time    8.9703
    CORREC:  cpu time    3.4378: real time    3.4544
    CHARGE:  cpu time    1.0808: real time    1.0808
    --------------------------------------------
      LOOP:  cpu time   14.0174: real time   14.0885

 eigenvalue-minimisations  :     0
 total energy-change (2. order) :-0.7394634E+01  (-0.1390422E+01)
 number of electron     179.9999997 magnetization      -0.5352242
 augmentation part       57.5025512 magnetization      -0.3531678

 Free energy of the ion-electron system (eV)
  ---------------------------------------------------
  alpha Z        PSCENC =       532.25742704
  Ewald energy   TEWEN  =     -8601.05107233
  -Hartree energ DENC   =     -1715.74196340
  -exchange      EXHF   =         0.00000000
  -V(xc)+E(xc)   XCENC  =      -665.23247934
  PAW double counting   =     14259.20963187   -13444.15925505
  entropy T*S    EENTRO =        -0.00676015
  eigenvalues    EBANDS =       937.38612692
  atomic energy  EATOM  =      8465.11600846
  ---------------------------------------------------
  free energy    TOTEN  =      -232.22289687 eV

  energy without entropy =     -232.21613673  energy(sigma->0) =     -232.22064349


--------------------------------------------------------------------------------------------------------




--------------------------------------- Iteration      1(  14)  ---------------------------------------


    POTLOK:  cpu time    0.2473: real time    0.2473
    SETDIJ:  cpu time    0.3201: real time    0.3201
    TRIAL :  cpu time    8.9767: real time    9.0309
    CORREC:  cpu time    3.3570: real time    3.3846
    CHARGE:  cpu time    1.6889: real time    1.6997
    --------------------------------------------
      LOOP:  cpu time   14.6097: real time   14.7035

 eigenvalue-minimisations  :     0
 total energy-change (2. order) :-0.1373707E+01  (-0.7947670E+00)
 number of electron     179.9999997 magnetization      -0.6543273
 augmentation part       57.2083008 magnetization      -0.4150400

 Free energy of the ion-electron system (eV)
  ---------------------------------------------------
  alpha Z        PSCENC =       532.25742704
  Ewald energy   TEWEN  =     -8601.05107233
  -Hartree energ DENC   =     -1664.32733186
  -exchange      EXHF   =         0.00000000
  -V(xc)+E(xc)   XCENC  =      -667.17897685
  PAW double counting   =     13966.26316957   -13134.68766231
  entropy T*S    EENTRO =        -0.00576786
  eigenvalues    EBANDS =       870.01859482
  atomic energy  EATOM  =      8465.11600846
  ---------------------------------------------------
  free energy    TOTEN  =      -233.59660362 eV

  energy without entropy =     -233.59083576  energy(sigma->0) =     -233.59468100


--------------------------------------------------------------------------------------------------------




--------------------------------------- Iteration      1(  15)  ---------------------------------------


    POTLOK:  cpu time    0.2478: real time    0.2478
    SETDIJ:  cpu time    0.3265: real time    0.3265
    TRIAL :  cpu time    9.8270: real time    9.8547
    CORREC:  cpu time    3.3456: real time    3.3608
    CHARGE:  cpu time    1.1252: real time    1.1321
    --------------------------------------------
      LOOP:  cpu time   14.8764: real time   14.9277

 eigenvalue-minimisations  :     0
 total energy-change (2. order) :-0.7942705E+00  (-0.5856059E+00)
 number of electron     179.9999996 magnetization      -0.7096641
 augmentation part       57.6450227 magnetization      -0.4593898

 Free energy of the ion-electron system (eV)
  ---------------------------------------------------
  alpha Z        PSCENC =       532.25742704
  Ewald energy   TEWEN  =     -8601.05107233
  -Hartree energ DENC   =     -1640.05559676
  -exchange      EXHF   =         0.00000000
  -V(xc)+E(xc)   XCENC  =      -667.99803563
  PAW double counting   =     13453.51675121   -12615.37978656
  entropy T*S    EENTRO =        -0.00396318
  eigenvalues    EBANDS =       839.20919836
  atomic energy  EATOM  =      8465.11600846
  ---------------------------------------------------
  free energy    TOTEN  =      -234.39087408 eV

  energy without entropy =     -234.38691089  energy(sigma->0) =     -234.38955302


--------------------------------------------------------------------------------------------------------




--------------------------------------- Iteration      1(  16)  ---------------------------------------


    POTLOK:  cpu time    0.2447: real time    0.2566
    SETDIJ:  cpu time    0.3179: real time    0.3179
    TRIAL :  cpu time    8.9170: real time    9.0261
    CORREC:  cpu time    3.4021: real time    3.4031
    CHARGE:  cpu time    1.0598: real time    1.1170
    --------------------------------------------
      LOOP:  cpu time   13.9446: real time   14.1248

 eigenvalue-minimisations  :     0
 total energy-change (2. order) :-0.5835883E+00  (-0.2031979E+00)
 number of electron     179.9999996 magnetization      -0.7466321
 augmentation part       58.0849110 magnetization      -0.4945902

 Free energy of the ion-electron system (eV)
  ---------------------------------------------------
  alpha Z        PSCENC =       532.25742704
  Ewald energy   TEWEN  =     -8601.05107233
  -Hartree energ DENC   =     -1653.18169659
  -exchange      EXHF   =         0.00000000
  -V(xc)+E(xc)   XCENC  =      -667.44783956
  PAW double counting   =     13112.54634201   -12276.97381268
  entropy T*S    EENTRO =        -0.00378587
  eigenvalues    EBANDS =       853.76414444
  atomic energy  EATOM  =      8465.11600846
  ---------------------------------------------------
  free energy    TOTEN  =      -234.97446240 eV

  energy without entropy =     -234.97067653  energy(sigma->0) =     -234.97320044


--------------------------------------------------------------------------------------------------------




--------------------------------------- Iteration      1(  17)  ---------------------------------------


    POTLOK:  cpu time    0.2472: real time    0.2472
    SETDIJ:  cpu time    0.3227: real time    0.3227
    TRIAL :  cpu time    8.9118: real time    8.9665
    CORREC:  cpu time    3.3498: real time    3.3817
    CHARGE:  cpu time    1.1227: real time    1.1314
    --------------------------------------------
      LOOP:  cpu time   13.9571: real time   14.0525

 eigenvalue-minimisations  :     0
 total energy-change (2. order) :-0.2030230E+00  (-0.1869449E+00)
 number of electron     179.9999996 magnetization      -0.8437844
 augmentation part       58.2700235 magnetization      -0.5561182

 Free energy of the ion-electron system (eV)
  ---------------------------------------------------
  alpha Z        PSCENC =       532.25742704
  Ewald energy   TEWEN  =     -8601.05107233
  -Hartree energ DENC   =     -1672.27988480
  -exchange      EXHF   =         0.00000000
  -V(xc)+E(xc)   XCENC  =      -666.66248240
  PAW double counting   =     13031.89900275   -12200.77225848
  entropy T*S    EENTRO =        -0.00137457
  eigenvalues    EBANDS =       876.31956026
  atomic energy  EATOM  =      8465.11600846
  ---------------------------------------------------
  free energy    TOTEN  =      -235.17748539 eV

  energy without entropy =     -235.17611082  energy(sigma->0) =     -235.17702720


--------------------------------------------------------------------------------------------------------




--------------------------------------- Iteration      1(  18)  ---------------------------------------


    POTLOK:  cpu time    0.2463: real time    0.2467
    SETDIJ:  cpu time    0.3236: real time    0.3239
    TRIAL :  cpu time    8.9973: real time    9.0278
    CORREC:  cpu time    3.3187: real time    3.3431
    CHARGE:  cpu time    1.0758: real time    1.0760
    --------------------------------------------
      LOOP:  cpu time   13.9641: real time   14.0204

 eigenvalue-minimisations  :     0
 total energy-change (2. order) :-0.1868891E+00  (-0.1325384E+00)
 number of electron     179.9999996 magnetization      -0.8790464
 augmentation part       58.1248274 magnetization      -0.5893185

 Free energy of the ion-electron system (eV)
  ---------------------------------------------------
  alpha Z        PSCENC =       532.25742704
  Ewald energy   TEWEN  =     -8601.05107233
  -Hartree energ DENC   =     -1678.66915298
  -exchange      EXHF   =         0.00000000
  -V(xc)+E(xc)   XCENC  =      -666.25439125
  PAW double counting   =     12986.61751771   -12157.68218119
  entropy T*S    EENTRO =        -0.00072137
  eigenvalues    EBANDS =       884.30284461
  atomic energy  EATOM  =      8465.11600846
  ---------------------------------------------------
  free energy    TOTEN  =      -235.36437452 eV

  energy without entropy =     -235.36365314  energy(sigma->0) =     -235.36413406


--------------------------------------------------------------------------------------------------------




--------------------------------------- Iteration      1(  19)  ---------------------------------------


    POTLOK:  cpu time    0.2528: real time    0.2528
    SETDIJ:  cpu time    0.3173: real time    0.3173
    TRIAL :  cpu time    9.6214: real time    9.6573
    CORREC:  cpu time    4.0418: real time    4.0431
    CHARGE:  cpu time    1.0697: real time    1.0697
    --------------------------------------------
      LOOP:  cpu time   15.3114: real time   15.3502

 eigenvalue-minimisations  :     0
 total energy-change (2. order) :-0.1316737E+00  (-0.5343717E-01)
 number of electron     179.9999996 magnetization      -0.9045732
 augmentation part       57.9219097 magnetization      -0.6096747

 Free energy of the ion-electron system (eV)
  ---------------------------------------------------
  alpha Z        PSCENC =       532.25742704
  Ewald energy   TEWEN  =     -8601.05107233
  -Hartree energ DENC   =     -1669.34519161
  -exchange      EXHF   =         0.00000000
  -V(xc)+E(xc)   XCENC  =      -666.44128861
  PAW double counting   =     12958.54396380   -12128.26578944
  entropy T*S    EENTRO =         0.00032296
  eigenvalues    EBANDS =       873.69061583
  atomic energy  EATOM  =      8465.11600846
  ---------------------------------------------------
  free energy    TOTEN  =      -235.49604825 eV

  energy without entropy =     -235.49637121  energy(sigma->0) =     -235.49615590


--------------------------------------------------------------------------------------------------------




--------------------------------------- Iteration      1(  20)  ---------------------------------------


    POTLOK:  cpu time    0.2458: real time    0.2551
    SETDIJ:  cpu time    0.3186: real time    0.3186
    TRIAL :  cpu time    8.9737: real time    9.0547
    CORREC:  cpu time    3.3304: real time    3.3825
    CHARGE:  cpu time    1.0678: real time    1.0679
    --------------------------------------------
      LOOP:  cpu time   13.9640: real time   14.1081

 eigenvalue-minimisations  :     0
 total energy-change (2. order) :-0.5327684E-01  (-0.6343005E-01)
 number of electron     179.9999996 magnetization      -0.9717624
 augmentation part       57.7837402 magnetization      -0.6496239

 Free energy of the ion-electron system (eV)
  ---------------------------------------------------
  alpha Z        PSCENC =       532.25742704
  Ewald energy   TEWEN  =     -8601.05107233
  -Hartree energ DENC   =     -1659.16458751
  -exchange      EXHF   =         0.00000000
  -V(xc)+E(xc)   XCENC  =      -666.74486358
  PAW double counting   =     12946.30990754   -12113.99923346
  entropy T*S    EENTRO =         0.00192380
  eigenvalues    EBANDS =       861.72676579
  atomic energy  EATOM  =      8465.11600846
  ---------------------------------------------------
  free energy    TOTEN  =      -235.54932509 eV

  energy without entropy =     -235.55124889  energy(sigma->0) =     -235.54996636


--------------------------------------------------------------------------------------------------------




--------------------------------------- Iteration      1(  21)  ---------------------------------------


    POTLOK:  cpu time    0.2471: real time    0.2471
    SETDIJ:  cpu time    0.3231: real time    0.3231
    TRIAL :  cpu time    8.8511: real time    9.0191
    CORREC:  cpu time    3.3291: real time    3.3302
    CHARGE:  cpu time    1.0634: real time    1.0635
    --------------------------------------------
      LOOP:  cpu time   13.8269: real time   13.9976

 eigenvalue-minimisations  :     0
 total energy-change (2. order) :-0.6345357E-01  (-0.5757726E-01)
 number of electron     179.9999996 magnetization      -1.0276460
 augmentation part       57.8670267 magnetization      -0.6902771

 Free energy of the ion-electron system (eV)
  ---------------------------------------------------
  alpha Z        PSCENC =       532.25742704
  Ewald energy   TEWEN  =     -8601.05107233
  -Hartree energ DENC   =     -1654.41489088
  -exchange      EXHF   =         0.00000000
  -V(xc)+E(xc)   XCENC  =      -666.84516456
  PAW double counting   =     12952.54363735   -12119.12845181
  entropy T*S    EENTRO =         0.00308670
  eigenvalues    EBANDS =       855.90780426
  atomic energy  EATOM  =      8465.11600846
  ---------------------------------------------------
  free energy    TOTEN  =      -235.61277867 eV

  energy without entropy =     -235.61586537  energy(sigma->0) =     -235.61380757


--------------------------------------------------------------------------------------------------------




--------------------------------------- Iteration      1(  22)  ---------------------------------------


    POTLOK:  cpu time    0.2476: real time    0.2476
    SETDIJ:  cpu time    0.3376: real time    0.3376
    TRIAL :  cpu time    8.9831: real time    9.1116
    CORREC:  cpu time    3.3450: real time    3.3540
    CHARGE:  cpu time    1.0612: real time    1.0612
    --------------------------------------------
      LOOP:  cpu time   13.9780: real time   14.1165

 eigenvalue-minimisations  :     0
 total energy-change (2. order) :-0.5756523E-01  (-0.1993968E-01)
 number of electron     179.9999996 magnetization      -1.0573594
 augmentation part       57.9706296 magnetization      -0.7141864

 Free energy of the ion-electron system (eV)
  ---------------------------------------------------
  alpha Z        PSCENC =       532.25742704
  Ewald energy   TEWEN  =     -8601.05107233
  -Hartree energ DENC   =     -1661.68618712
  -exchange      EXHF   =         0.00000000
  -V(xc)+E(xc)   XCENC  =      -666.52555683
  PAW double counting   =     12982.56141938   -12150.48274019
  entropy T*S    EENTRO =         0.00350553
  eigenvalues    EBANDS =       864.13727099
  atomic energy  EATOM  =      8465.11600846
  ---------------------------------------------------
  free energy    TOTEN  =      -235.67034390 eV

  energy without entropy =     -235.67384943  energy(sigma->0) =     -235.67151241


--------------------------------------------------------------------------------------------------------




--------------------------------------- Iteration      1(  23)  ---------------------------------------


    POTLOK:  cpu time    0.2476: real time    0.2476
    SETDIJ:  cpu time    0.3182: real time    0.3392
    TRIAL :  cpu time    9.5801: real time    9.6099
    CORREC:  cpu time    3.3697: real time    3.3707
    CHARGE:  cpu time    1.7056: real time    1.7058
    --------------------------------------------
[...]
  8.438  14.380  -0.000   0.000   0.000  -0.001   0.001   0.001
 14.380  24.505  -0.001   0.000   0.000  -0.002   0.001   0.001
 -0.000  -0.001   1.996   0.000  -0.000   5.749   0.000  -0.000
  0.000   0.000   0.000   1.996   0.000   0.000   5.748   0.000
  0.000   0.000  -0.000   0.000   1.996  -0.000   0.000   5.749
 -0.001  -0.002   5.749   0.000  -0.000  16.475   0.000  -0.001
  0.001   0.001   0.000   5.748   0.000   0.000  16.471  -0.000
  0.001   0.001  -0.000   0.000   5.749  -0.001  -0.000  16.476
 total augmentation occupancy for first ion, spin component:           1
  4.379  -1.253  -0.000  -0.001   0.003  -0.001   0.000   0.000
 -1.253   0.378   0.001  -0.001  -0.004   0.000  -0.000   0.000
 -0.000   0.001   1.430   0.007   0.002  -0.101  -0.000  -0.000
 -0.001  -0.001   0.007   1.514   0.000  -0.000  -0.102   0.000
  0.003  -0.004   0.002   0.000   1.403  -0.000   0.000  -0.101
 -0.001   0.000  -0.101  -0.000  -0.000   0.008   0.000   0.000
  0.000  -0.000  -0.000  -0.102   0.000   0.000   0.007  -0.000
  0.000   0.000  -0.000   0.000  -0.101   0.000  -0.000   0.008
 total augmentation occupancy for first ion, spin component:           2
 -0.063   0.019   0.019  -0.030   0.018  -0.001   0.001  -0.001
  0.019  -0.006   0.002  -0.002   0.002  -0.000   0.000  -0.000
  0.019   0.002  -0.026  -0.075  -0.015   0.002   0.001   0.000
 -0.030  -0.002  -0.075  -0.040   0.023   0.001   0.002  -0.000
  0.018   0.002  -0.015   0.023  -0.022   0.000  -0.000   0.001
 -0.001  -0.000   0.002   0.001   0.000  -0.000   0.000   0.000
  0.001   0.000   0.001   0.002  -0.000   0.000  -0.000  -0.000
 -0.001  -0.000   0.000  -0.000   0.001   0.000  -0.000  -0.000


------------------------ aborting loop because EDIFF is reached ----------------------------------------


 


 total charge     
 
# of ion       s       p       d       tot
------------------------------------------
    1        0.404   0.430   0.000   0.834
    2        0.404   0.430   0.000   0.834
    3        0.405   0.428   0.000   0.833
    4        0.405   0.428   0.000   0.833
    5        0.405   0.429   0.000   0.834
    6        0.405   0.430   0.000   0.834
    7        0.405   0.428   0.000   0.833
    8        0.405   0.429   0.000   0.834
    9        0.406   0.429   0.000   0.835
   10        0.406   0.429   0.000   0.834
   11        0.405   0.425   0.000   0.830
   12        0.405   0.424   0.000   0.829
   13        0.404   0.430   0.000   0.835
   14        0.404   0.430   0.000   0.835
   15        0.405   0.429   0.000   0.834
   16        0.405   0.429   0.000   0.834
   17        0.405   0.429   0.000   0.833
   18        0.404   0.429   0.000   0.834
   19        0.333   0.353   5.137   5.823
   20        0.333   0.358   5.127   5.817
   21        0.335   0.358   5.114   5.807
   22        0.331   0.354   5.141   5.826
   23        0.335   0.352   5.129   5.816
   24        0.331   0.357   5.129   5.816
   25        0.329   0.356   5.137   5.822
   26        0.330   0.355   5.141   5.826
   27        0.334   0.349   5.142   5.824
   28        0.337   0.361   5.110   5.808
   29        0.331   0.353   5.137   5.821
   30        0.331   0.354   5.137   5.822
   31        0.331   0.356   5.128   5.815
   32        0.334   0.354   5.130   5.818
   33        0.329   0.354   5.145   5.828
   34        0.334   0.355   5.125   5.814
   35        0.334   0.356   5.127   5.817
   36        0.335   0.358   5.122   5.815
--------------------------------------------------
tot         13.275  14.106  92.358 119.739
 


 magnetization (x)
 
# of ion       s       p       d       tot
------------------------------------------
    1       -0.005  -0.010   0.000  -0.015
    2       -0.005  -0.009   0.000  -0.014
    3        0.000  -0.000   0.000   0.000
    4        0.000  -0.001   0.000  -0.001
    5       -0.003  -0.008   0.000  -0.012
    6       -0.004  -0.008   0.000  -0.012
    7        0.000  -0.001   0.000  -0.001
    8        0.000  -0.000   0.000  -0.000
    9        0.005   0.010   0.000   0.016
   10        0.005   0.010   0.000   0.016
   11        0.004   0.007   0.000   0.010
   12        0.004   0.006   0.000   0.010
   13       -0.004  -0.007   0.000  -0.011
   14       -0.003  -0.006   0.000  -0.010
   15        0.004   0.008   0.000   0.012
   16        0.004   0.009   0.000   0.013
   17        0.000  -0.000   0.000   0.000
   18        0.000  -0.001   0.000  -0.001
   19        0.024   0.036   2.174   2.234
   20       -0.023  -0.037  -2.239  -2.299
   21       -0.018  -0.034  -2.474  -2.525
   22        0.028   0.036   2.165   2.228
   23       -0.023  -0.018  -2.468  -2.509
   24        0.010   0.015   2.306   2.331
   25       -0.014  -0.032  -2.033  -2.080
   26        0.029   0.035   2.077   2.141
   27       -0.018  -0.001  -2.408  -2.427
   28       -0.031  -0.035  -2.424  -2.490
   29       -0.011  -0.006  -2.291  -2.308
   30        0.013   0.005   2.246   2.264
   31        0.007   0.007   2.326   2.340
   32       -0.021  -0.010  -2.449  -2.480
   33        0.014   0.017   2.030   2.061
   34       -0.019  -0.018  -2.448  -2.484
   35        0.024   0.015   2.293   2.332
   36        0.028   0.022   2.327   2.377
--------------------------------------------------
tot          0.001  -0.002  -1.292  -1.293
 
    FORLOC:  cpu time    0.0282: real time    0.0282
    FORNL :  cpu time   12.8814: real time   13.0286
    STRESS:  cpu time   17.8830: real time   18.0520
    FORCOR:  cpu time    0.2708: real time    0.2708
    OFIELD:  cpu time    0.0017: real time    0.0017

  FORCE on cell =-STRESS in cart. coord.  units (eV):
  Direction    XX          YY          ZZ          XY          YZ          ZX
  --------------------------------------------------------------------------------------
  Alpha Z   532.25743   532.25743   532.25743
  Ewald   -2702.40749 -2702.40749 -3196.26924    -0.00000    -0.00000    -0.00000
  Hartree   721.93308   722.07587   222.19999     0.15742    -0.00000    -0.00000
  E(xc)    -760.24380  -760.26034  -759.50524    -0.05697    -0.00000    -0.00000
  Local     245.75046   246.11749  1269.41462    -0.54458     0.00000     0.00000
  n-local  -110.20321  -110.16146  -120.40658    -0.02734    -0.13917    -0.06345
  augment   522.04765   521.94852   512.83879     0.19172     0.00001     0.00001
  Kinetic  1558.74021  1557.69126  1537.39375     0.46014     0.66255    -0.01306
  Fock        0.00000     0.00000     0.00000     0.00000     0.00000     0.00000
  -------------------------------------------------------------------------------------
  Total       7.87432     7.26127    -2.07648     0.18040     0.00000     0.00000
  in kB      26.65697    24.58163    -7.02953     0.61071     0.00000     0.00000
  external pressure =       14.74 kB  Pullay stress =        0.00 kB


 VOLUME and BASIS-vectors are now :
 -----------------------------------------------------------------------------
  energy-cutoff  :      404.80
  volume of cell :      473.27
      direct lattice vectors                 reciprocal lattice vectors
     8.250148166  0.000000000  0.000000000     0.121209944  0.000000000  0.000000000
     0.000000000  8.250148166  0.000000000     0.000000000  0.121209944  0.000000000
     0.000000000  0.000000000  6.953274261     0.000000000  0.000000000  0.143817137

  length of vectors
     8.250148166  8.250148166  6.953274261     0.121209944  0.121209944  0.143817137


 FORCES acting on ions:
    Electron-Ion                     Ewald-Force                    Non-Local-Force
 -----------------------------------------------------------------------------------------------
   -.164E+00 0.181E+00 -.560E-01   -.239E-08 -.239E-08 0.411E-08   0.265E-01 -.508E-01 0.531E-01
   -.164E+00 0.181E+00 0.560E-01   -.239E-08 -.239E-08 0.411E-08   0.265E-01 -.508E-01 -.531E-01
   -.276E+00 -.332E+00 -.453E-01   -.239E-08 -.802E-09 0.411E-08   0.529E-01 0.785E-01 0.269E-01
   -.276E+00 -.332E+00 0.453E-01   -.239E-08 -.802E-09 0.411E-08   0.529E-01 0.785E-01 -.269E-01
   0.132E+00 0.164E+00 0.182E-01   -.239E-08 0.631E-08 0.411E-08   -.610E-01 -.414E-01 -.299E-01
   0.132E+00 0.164E+00 -.182E-01   -.239E-08 0.631E-08 0.411E-08   -.610E-01 -.414E-01 0.299E-01
   0.343E+00 -.216E+00 -.211E-01   -.802E-09 -.239E-08 0.411E-08   -.975E-01 0.845E-01 -.958E-02
   0.343E+00 -.216E+00 0.211E-01   -.802E-09 -.239E-08 0.411E-08   -.975E-01 0.845E-01 0.958E-02
   0.172E+00 0.912E-01 0.120E+00   -.802E-09 -.802E-09 0.411E-08   -.216E-01 -.613E-02 -.258E-01
   0.172E+00 0.912E-01 -.120E+00   -.802E-09 -.802E-09 0.411E-08   -.216E-01 -.613E-02 0.258E-01
   -.156E+00 0.132E+00 0.244E-02   -.802E-09 0.631E-08 0.411E-08   0.583E-01 -.714E-01 0.117E-01
   -.156E+00 0.132E+00 -.244E-02   -.802E-09 0.631E-08 0.411E-08   0.583E-01 -.714E-01 -.117E-01
   -.197E+00 -.123E+00 0.700E-02   0.631E-08 -.239E-08 0.411E-08   0.727E-01 0.420E-01 -.252E-01
   -.197E+00 -.123E+00 -.700E-02   0.631E-08 -.239E-08 0.411E-08   0.727E-01 0.420E-01 0.252E-01
   0.102E+00 0.125E+00 0.521E-01   0.631E-08 -.802E-09 0.411E-08   -.204E-01 -.181E-01 -.155E-01
   0.102E+00 0.125E+00 -.521E-01   0.631E-08 -.802E-09 0.411E-08   -.204E-01 -.181E-01 0.155E-01
   0.699E-01 -.135E-01 0.125E-02   0.631E-08 0.631E-08 0.411E-08   -.220E-01 -.254E-01 0.174E-01
   0.699E-01 -.135E-01 -.125E-02   0.631E-08 0.631E-08 0.411E-08   -.220E-01 -.254E-01 -.174E-01
   -.865E+00 -.241E+00 -.376E-09   -.169E-07 -.169E-07 -.411E-08   0.519E+00 0.275E+00 0.000E+00
   -.737E+00 0.188E-01 -.404E-08   -.169E-07 -.169E-07 -.411E-08   0.361E+00 0.802E-01 0.000E+00
   0.477E+00 0.728E+00 -.200E-09   -.169E-07 0.802E-09 -.411E-08   -.200E+00 -.416E+00 0.000E+00
   -.876E-02 0.781E+00 -.580E-08   -.169E-07 0.802E-09 -.411E-08   0.129E+00 -.452E+00 0.000E+00
   0.304E+00 -.607E+00 -.251E-08   -.169E-07 0.130E-07 -.411E-08   -.335E-01 0.325E+00 0.000E+00
   0.216E+00 -.640E+00 -.445E-08   -.169E-07 0.130E-07 -.411E-08   -.114E+00 0.466E+00 0.000E+00
   0.230E+00 -.161E+00 -.115E-08   0.802E-09 -.169E-07 -.411E-08   -.303E+00 0.995E-01 0.000E+00
   0.289E+00 -.617E+00 -.144E-08   0.802E-09 -.169E-07 -.411E-08   -.359E+00 0.398E+00 0.000E+00
   -.280E+00 0.995E-01 -.769E-09   0.802E-09 0.802E-09 -.411E-08   0.441E-01 -.280E-02 0.000E+00
   0.733E+00 0.110E+00 -.310E-08   0.802E-09 0.802E-09 -.411E-08   -.362E+00 -.198E+00 0.000E+00
   -.146E+00 0.102E+00 -.327E-08   0.802E-09 0.130E-07 -.411E-08   -.534E-02 -.166E+00 0.000E+00
   -.121E+00 0.395E+00 -.183E-08   0.802E-09 0.130E-07 -.411E-08   0.357E-01 -.387E+00 0.000E+00
   0.517E+00 0.194E+00 -.937E-09   0.130E-07 -.169E-07 -.411E-08   -.302E+00 -.123E+00 0.000E+00
   0.476E+00 0.367E+00 -.226E-08   0.130E-07 -.169E-07 -.411E-08   -.267E+00 -.177E+00 0.000E+00
   -.403E+00 -.227E+00 -.592E-09   0.130E-07 0.802E-09 -.411E-08   0.410E+00 0.143E+00 0.000E+00
   -.605E+00 -.412E+00 -.411E-08   0.130E-07 0.802E-09 -.411E-08   0.366E+00 0.194E+00 0.000E+00
   -.643E-01 0.263E-01 -.285E-08   0.130E-07 0.130E-07 -.411E-08   0.823E-01 0.297E-02 0.000E+00
   -.577E-01 0.767E-01 -.245E-08   0.130E-07 0.130E-07 -.411E-08   0.194E-01 -.572E-01 0.000E+00
 -----------------------------------------------------------------------------------------------
   0.596E-02 0.106E-01 -.789E-07   -.197E-14 0.275E-13 0.265E-14   -.590E-02 -.106E-01 0.000E+00
 
 
 POSITION                                       TOTAL-FORCE (eV/Angst)
 -----------------------------------------------------------------------------------
      0.00000      0.00000      0.00000        -0.139738      0.135761     -0.007779
      0.00000      0.00000      3.47664        -0.139738      0.135761      0.007779
      0.00000      2.75005      0.00000        -0.227266     -0.261107     -0.020771
      0.00000      2.75005      3.47664        -0.227266     -0.261107      0.020771
      0.00000      5.50010      0.00000         0.077147      0.126282     -0.009003
      0.00000      5.50010      3.47664         0.077147      0.126282      0.009003
      2.75005      0.00000      0.00000         0.254140     -0.138386     -0.029948
      2.75005      0.00000      3.47664         0.254140     -0.138386      0.029948
      2.75005      2.75005      0.00000         0.152009      0.085411      0.095866
      2.75005      2.75005      3.47664         0.152009      0.085411     -0.095866
      2.75005      5.50010      0.00000        -0.103460      0.066500      0.011895
      2.75005      5.50010      3.47664        -0.103460      0.066500     -0.011895
      5.50010      0.00000      0.00000        -0.131417     -0.084359     -0.016016
      5.50010      0.00000      3.47664        -0.131417     -0.084359      0.016016
      5.50010      2.75005      0.00000         0.083774      0.107833      0.037818
      5.50010      2.75005      3.47664         0.083774      0.107833     -0.037818
      5.50010      5.50010      0.00000         0.050303     -0.037443      0.016588
      5.50010      5.50010      3.47664         0.050303     -0.037443     -0.016588
      1.37502      1.37502      1.73832        -0.360908      0.031401      0.000000
      1.37502      1.37502      5.21496        -0.384572      0.103345      0.000000
      1.37502      4.12507      1.73832         0.287617      0.321935      0.000000
      1.37502      4.12507      5.21496         0.124915      0.342669      0.000000
      1.37502      6.87512      1.73832         0.271896     -0.295458      0.000000
      1.37502      6.87512      5.21496         0.105371     -0.182462      0.000000
      4.12507      1.37502      1.73832        -0.074061     -0.060760      0.000000
      4.12507      1.37502      5.21496        -0.071882     -0.221948      0.000000
      4.12507      4.12507      1.73832        -0.248536      0.096640      0.000000
      4.12507      4.12507      5.21496         0.383850     -0.087928      0.000000
      4.12507      6.87512      1.73832        -0.149761     -0.062833      0.000000
      4.12507      6.87512      5.21496        -0.087540      0.005921      0.000000
      6.87512      1.37502      1.73832         0.224185      0.072847      0.000000
      6.87512      1.37502      5.21496         0.218908      0.191560      0.000000
      6.87512      4.12507      1.73832        -0.001418     -0.087329      0.000000
      6.87512      4.12507      5.21496        -0.250374     -0.218047      0.000000
      6.87512      6.87512      1.73832         0.018453      0.030737      0.000000
      6.87512      6.87512      5.21496        -0.037130      0.018729      0.000000
 -----------------------------------------------------------------------------------
    total drift:                                0.000060      0.000032     -0.000000


--------------------------------------------------------------------------------------------------------



  FREE ENERGIE OF THE ION-ELECTRON SYSTEM (eV)
  ---------------------------------------------------
  free  energy   TOTEN  =      -235.79066896 eV

  energy  without entropy=     -235.79616764  energy(sigma->0) =     -235.79250185
 


--------------------------------------------------------------------------------------------------------


    POTLOK:  cpu time    0.6161: real time    0.6834


--------------------------------------------------------------------------------------------------------


     LOOP+:  cpu time 1216.9076: real time 1230.9434
    4ORBIT:  cpu time    0.0000: real time    0.0000
 


 total charge     
 
# of ion       s       p       d       tot
------------------------------------------
    1        0.404   0.430   0.000   0.834
    2        0.404   0.430   0.000   0.834
    3        0.405   0.428   0.000   0.833
    4        0.405   0.428   0.000   0.833
    5        0.405   0.429   0.000   0.834
    6        0.405   0.430   0.000   0.834
    7        0.405   0.428   0.000   0.833
    8        0.405   0.429   0.000   0.834
    9        0.406   0.429   0.000   0.835
   10        0.406   0.429   0.000   0.834
   11        0.405   0.425   0.000   0.830
   12        0.405   0.424   0.000   0.829
   13        0.404   0.430   0.000   0.835
   14        0.404   0.430   0.000   0.835
   15        0.405   0.429   0.000   0.834
   16        0.405   0.429   0.000   0.834
   17        0.405   0.429   0.000   0.833
   18        0.404   0.429   0.000   0.834
   19        0.333   0.353   5.137   5.823
   20        0.333   0.358   5.127   5.817
   21        0.335   0.358   5.114   5.807
   22        0.331   0.354   5.141   5.826
   23        0.335   0.352   5.129   5.816
   24        0.331   0.357   5.129   5.816
   25        0.329   0.356   5.137   5.822
   26        0.330   0.355   5.141   5.826
   27        0.334   0.349   5.142   5.824
   28        0.337   0.361   5.110   5.808
   29        0.331   0.353   5.137   5.821
   30        0.331   0.354   5.137   5.822
   31        0.331   0.356   5.128   5.815
   32        0.334   0.354   5.130   5.818
   33        0.329   0.354   5.145   5.828
   34        0.334   0.355   5.125   5.814
   35        0.334   0.356   5.127   5.817
   36        0.335   0.358   5.122   5.815
--------------------------------------------------
tot         13.275  14.106  92.358 119.739
 


 magnetization (x)
 
# of ion       s       p       d       tot
------------------------------------------
    1       -0.005  -0.010   0.000  -0.015
    2       -0.005  -0.009   0.000  -0.014
    3        0.000  -0.000   0.000   0.000
    4        0.000  -0.001   0.000  -0.001
    5       -0.003  -0.008   0.000  -0.012
    6       -0.004  -0.008   0.000  -0.012
    7        0.000  -0.001   0.000  -0.001
    8        0.000  -0.000   0.000  -0.000
    9        0.005   0.010   0.000   0.016
   10        0.005   0.010   0.000   0.016
   11        0.004   0.007   0.000   0.010
   12        0.004   0.006   0.000   0.010
   13       -0.004  -0.007   0.000  -0.011
   14       -0.003  -0.006   0.000  -0.010
   15        0.004   0.008   0.000   0.012
   16        0.004   0.009   0.000   0.013
   17        0.000  -0.000   0.000   0.000
   18        0.000  -0.001   0.000  -0.001
   19        0.024   0.036   2.174   2.234
   20       -0.023  -0.037  -2.239  -2.299
   21       -0.018  -0.034  -2.474  -2.525
   22        0.028   0.036   2.165   2.228
   23       -0.023  -0.018  -2.468  -2.509
   24        0.010   0.015   2.306   2.331
   25       -0.014  -0.032  -2.033  -2.080
   26        0.029   0.035   2.077   2.141
   27       -0.018  -0.001  -2.408  -2.427
   28       -0.031  -0.035  -2.424  -2.490
   29       -0.011  -0.006  -2.291  -2.308
   30        0.013   0.005   2.246   2.264
   31        0.007   0.007   2.326   2.340
   32       -0.021  -0.010  -2.449  -2.480
   33        0.014   0.017   2.030   2.061
   34       -0.019  -0.018  -2.448  -2.484
   35        0.024   0.015   2.293   2.332
   36        0.028   0.022   2.327   2.377
--------------------------------------------------
tot          0.001  -0.002  -1.292  -1.293
 

 total amount of memory used by VASP MPI-rank0   740218. kBytes
=======================================================================

   base      :      30000. kBytes
   nonl-proj :      34307. kBytes
   fftplans  :      21726. kBytes
   grid      :      14732. kBytes
   one-center:        279. kBytes
   wavefun   :     639174. kBytes
 
  
  
 General timing and accounting informations for this job:
 ========================================================
  
                  Total CPU time used (sec):     1242.813
                            User time (sec):     1220.675
                          System time (sec):       22.138
                         Elapsed time (sec):     1258.630
  
                   Maximum memory used (kb):      879908.
                   Average memory used (kb):           0.
  
                          Minor page faults:       436160
                          Major page faults:           14
                 Voluntary context switches:         3177
