 vasp.5.4.4.18Apr17-6-g9f103f2a35 (build Dec 13 2018 10:28:32) complex          
  
 executed on             LinuxIFC date 2019.05.16  10:24:26
 running on   48 total cores
 distrk:  each k-point on   48 cores,    1 groups
 distr:  one band on NCORES_PER_BAND=  24 cores,    2 groups


--------------------------------------------------------------------------------------------------------


 INCAR:
 POTCAR:   PAW_PBE F 08Apr2002                    
 POTCAR:   PAW_PBE Ni 06Sep2000                   
 POTCAR:   PAW_PBE Cs_sv 08Apr2002                

 ----------------------------------------------------------------------------- 
|                                                                             |
|           W    W    AA    RRRRR   N    N  II  N    N   GGGG   !!!           |
|           W    W   A  A   R    R  NN   N  II  NN   N  G    G  !!!           |
|           W    W  A    A  R    R  N N  N  II  N N  N  G       !!!           |
|           W WW W  AAAAAA  RRRRR   N  N N  II  N  N N  G  GGG   !            |
|           WW  WW  A    A  R   R   N   NN  II  N   NN  G    G                |
|           W    W  A    A  R    R  N    N  II  N    N   GGGG   !!!           |
|                                                                             |
|      For optimal performance we recommend to set                            |
|        NCORE= 4 - approx SQRT( number of cores)                             |
|      NCORE specifies how many cores store one orbital (NPAR=cpu/NCORE).     |
|      This setting can  greatly improve the performance of VASP for DFT.     |
|      The default,   NCORE=1            might be grossly inefficient         |
|      on modern multi-core architectures or massively parallel machines.     |
|      Do your own testing !!!!                                               |
|      Unfortunately you need to use the default for GW and RPA calculations. |
|      (for HF NCORE is supported but not extensively tested yet)             |
|                                                                             |
 ----------------------------------------------------------------------------- 

 POTCAR:   PAW_PBE F 08Apr2002                    
   VRHFIN =F: s2p5                                                              
   LEXCH  = PE                                                                  
   EATOM  =   659.4942 eV,   48.4715 Ry                                         
                                                                                
   TITEL  = PAW_PBE F 08Apr2002                                                 
   LULTRA =        F    use ultrasoft PP ?                                      
   IUNSCR =        0    unscreen: 0-lin 1-nonlin 2-no                           
   RPACOR =     .000    partial core radius                                     
   POMASS =   18.998; ZVAL   =    7.000    mass and valenz                      
   RCORE  =    1.520    outmost cutoff radius                                   
   RWIGS  =    1.500; RWIGS  =     .794    wigner-seitz radius (au A)           
   ENMAX  =  400.000; ENMIN  =  300.000 eV                                      
   ICORE  =        2    local potential                                         
   LCOR   =        T    correct aug charges                                     
   LPAW   =        T    paw PP                                                  
   EAUG   =  613.614                                                            
   DEXC   =     .000                                                            
   RMAX   =    2.254    core radius for proj-oper                               
   RAUG   =    1.300    factor for augmentation sphere                          
   RDEP   =    1.539    radius for radial grids                                 
   QCUT   =   -5.545; QGAM   =   11.091    optimization parameters              
                                                                                
   Description                                                                  
     l     E      TYP  RCUT    TYP  RCUT                                        
     0   .000     23  1.200                                                     
     0  -.700     23  1.200                                                     
     1   .000     23  1.520                                                     
     1   .100     23  1.520                                                     
     2   .000      7  1.500                                                     
  local pseudopotential read in
  atomic valenz-charges read in
  non local Contribution for L=           0  read in
    real space projection operators read in
  non local Contribution for L=           0  read in
    real space projection operators read in
  non local Contribution for L=           1  read in
    real space projection operators read in
  non local Contribution for L=           1  read in
    real space projection operators read in
    PAW grid and wavefunctions read in
 
   number of l-projection  operators is LMAX  =           4
   number of lm-projection operators is LMMAX =           8
 
 POTCAR:   PAW_PBE Ni 06Sep2000                   
   VRHFIN =Ni:                                                                  
   LEXCH  = PE                                                                  
   EATOM  =  1077.9025 eV,   79.2236 Ry                                         
                                                                                
   TITEL  = PAW_PBE Ni 06Sep2000                                                
   LULTRA =        F    use ultrasoft PP ?                                      
   IUNSCR =        1    unscreen: 0-lin 1-nonlin 2-no                           
   RPACOR =    2.000    partial core radius                                     
   POMASS =   58.690; ZVAL   =   10.000    mass and valenz                      
   RCORE  =    2.300    outmost cutoff radius                                   
   RWIGS  =    2.430; RWIGS  =    1.286    wigner-seitz radius (au A)           
   ENMAX  =  269.533; ENMIN  =  202.150 eV                                      
   RCLOC  =    1.681    cutoff for local pot                                    
   LCOR   =        T    correct aug charges                                     
   LPAW   =        T    paw PP                                                  
   EAUG   =  544.565                                                            
   DEXC   =    -.009                                                            
   RMAX   =    2.808    core radius for proj-oper                               
   RAUG   =    1.300    factor for augmentation sphere                          
   RDEP   =    2.390    radius for radial grids                                 
   QCUT   =   -4.451; QGAM   =    8.902    optimization parameters              
                                                                                
   Description                                                                  
     l     E      TYP  RCUT    TYP  RCUT                                        
     2   .000     23  2.300                                                     
     2   .000     23  2.300                                                     
     0   .000     23  2.300                                                     
     0   .000     23  2.300                                                     
     1  -.200     23  2.300                                                     
     1   .000     23  2.300                                                     
     3   .000      7   .000                                                     
  local pseudopotential read in
  partial core-charges read in
  atomic valenz-charges read in
  non local Contribution for L=           2  read in
    real space projection operators read in
  non local Contribution for L=           2  read in
    real space projection operators read in
  non local Contribution for L=           0  read in
    real space projection operators read in
  non local Contribution for L=           0  read in
    real space projection operators read in
  non local Contribution for L=           1  read in
    real space projection operators read in
  non local Contribution for L=           1  read in
    real space projection operators read in
    PAW grid and wavefunctions read in
 
   number of l-projection  operators is LMAX  =           6
   number of lm-projection operators is LMMAX =          18
 
 POTCAR:   PAW_PBE Cs_sv 08Apr2002                
   VRHFIN =Cs: 5s5p6s                                                           
   LEXCH  = PE                                                                  
   EATOM  =   555.6835 eV,   40.8416 Ry                                         
                                                                                
   TITEL  = PAW_PBE Cs_sv 08Apr2002                                             
   LULTRA =        F    use ultrasoft PP ?                                      
   IUNSCR =        1    unscreen: 0-lin 1-nonlin 2-no                           
   RPACOR =    2.200    partial core radius                                     
   POMASS =  132.900; ZVAL   =    9.000    mass and valenz                      
   RCORE  =    2.500    outmost cutoff radius                                   
   RWIGS  =    2.500; RWIGS  =    1.323    wigner-seitz radius (au A)           
   ENMAX  =  220.318; ENMIN  =  165.238 eV                                      
   RCLOC  =    2.207    cutoff for local pot                                    
   LCOR   =        T    correct aug charges                                     
   LPAW   =        T    paw PP                                                  
   EAUG   =  407.933                                                            
   DEXC   =    -.004                                                            
   RMAX   =    3.106    core radius for proj-oper                               
   RAUG   =    1.300    factor for augmentation sphere                          
   RDEP   =    2.590    radius for radial grids                                 
   QCUT   =   -4.024; QGAM   =    8.048    optimization parameters              
                                                                                
   Description                                                                  
     l     E      TYP  RCUT    TYP  RCUT                                        
     0   .000     23  1.900                                                     
     0   .000     23  1.900                                                     
     0   .000     23  1.900                                                     
     0   .000     23  1.900                                                     
     1   .000     23  2.500                                                     
     1  -.200     23  2.500                                                     
     2   .000     23  2.500                                                     
  local pseudopotential read in
  partial core-charges read in
  atomic valenz-charges read in
  non local Contribution for L=           0  read in
    real space projection operators read in
  non local Contribution for L=           0  read in
    real space projection operators read in
  non local Contribution for L=           1  read in
    real space projection operators read in
  non local Contribution for L=           1  read in
    real space projection operators read in
  non local Contribution for L=           2  read in
    real space projection operators read in
    PAW grid and wavefunctions read in
 
   number of l-projection  operators is LMAX  =           5
   number of lm-projection operators is LMMAX =          13
 
 PAW_PBE F 08Apr2002                    :
 energy of atom  1       EATOM= -659.4942
 kinetic energy error for atom=    0.0323 (will be added to EATOM!!)
 PAW_PBE Ni 06Sep2000                   :
 energy of atom  2       EATOM=-1077.9025
 kinetic energy error for atom=    0.0030 (will be added to EATOM!!)
 PAW_PBE Cs_sv 08Apr2002                :
 energy of atom  3       EATOM= -555.6835
 kinetic energy error for atom=    0.0016 (will be added to EATOM!!)
 
 
 POSCAR: For VASP. System= small                 
  positions in cartesian coordinates
  velocities in cartesian coordinates
  No initial velocities read in
 exchange correlation table for  LEXCH =        8
   RHO(1)=    0.500       N(1)  =     2000
   RHO(2)=  100.500       N(2)  =     4000
 


--------------------------------------------------------------------------------------------------------


 ion  position               nearest neighbor table
   1  0.570  0.640  0.250-  32 2.04  28 2.04
   2  0.070  0.640  0.250-  31 2.04  27 2.04
   3  0.570  0.140  0.250-  30 2.04  26 2.04
   4  0.070  0.140  0.250-  29 2.04  25 2.04
   5  0.860  0.930  0.250-  29 2.04  25 2.04
   6  0.360  0.930  0.250-  30 2.04  26 2.04
   7  0.860  0.430  0.250-  31 2.04  27 2.04
   8  0.360  0.430  0.250-  32 2.04  28 2.04
   9  0.570  0.930  0.250-  30 2.04  26 2.04
  10  0.070  0.930  0.250-  29 2.04  25 2.04
  11  0.570  0.430  0.250-  32 2.04  28 2.04
  12  0.070  0.430  0.250-  31 2.04  27 2.04
  13  0.930  0.860  0.750-  25 2.04  29 2.04
  14  0.430  0.860  0.750-  26 2.04  30 2.04
  15  0.930  0.360  0.750-  27 2.04  31 2.04
  16  0.430  0.360  0.750-  28 2.04  32 2.04
  17  0.640  0.570  0.750-  28 2.04  32 2.04
  18  0.140  0.570  0.750-  27 2.04  31 2.04
  19  0.640  0.070  0.750-  26 2.04  30 2.04
  20  0.140  0.070  0.750-  25 2.04  29 2.04
  21  0.930  0.570  0.750-  27 2.04  31 2.04
  22  0.430  0.570  0.750-  28 2.04  32 2.04
  23  0.930  0.070  0.750-  25 2.04  29 2.04
  24  0.430  0.070  0.750-  26 2.04  30 2.04
  25  0.000  0.000  0.000-  20 2.04   5 2.04   4 2.04  13 2.04  23 2.04  10 2.04  29 2.66  29 2.66

  26  0.500  0.000  0.000-  19 2.04   6 2.04   3 2.04  14 2.04  24 2.04   9 2.04  30 2.66  30 2.66

  27  1.000  0.500  0.000-  18 2.04   7 2.04  15 2.04   2 2.04  21 2.04  12 2.04  31 2.66  31 2.66

  28  0.500  0.500  0.000-  17 2.04   8 2.04  16 2.04   1 2.04  22 2.04  11 2.04  32 2.66  32 2.66

  29  0.000  0.000  0.500-   5 2.04  20 2.04   4 2.04  13 2.04  10 2.04  23 2.04  25 2.66  25 2.66

  30  0.500  0.000  0.500-   6 2.04  19 2.04   3 2.04  14 2.04   9 2.04  24 2.04  26 2.66  26 2.66

  31  1.000  0.500  0.500-   7 2.04  18 2.04   2 2.04  15 2.04  12 2.04  21 2.04  27 2.66  27 2.66

  32  0.500  0.500  0.500-   8 2.04  17 2.04   1 2.04  16 2.04  11 2.04  22 2.04  28 2.66  28 2.66

  33  0.667  0.833  0.750-
  34  0.167  0.833  0.750-
  35  0.667  0.333  0.750-
  36  0.167  0.333  0.750-
  37  0.833  0.667  0.250-
  38  0.333  0.667  0.250-
  39  0.833  0.167  0.250-
  40  0.333  0.167  0.250-
 
  LATTYP: Found a hexagonal cell.
 ALAT       =    12.7752670119
 C/A-ratio  =     0.4167528495
  
  Lattice vectors:
  
 A1 = (   6.3876227840,  11.0637119627,   0.0000000000)
 A2 = (   6.3876227840, -11.0637119627,   0.0000000000)
 A3 = (   0.0000000000,   0.0000000000,  -5.3241289298)


Analysis of symmetry for initial positions (statically):
=====================================================================
 Subroutine PRICEL returns following result:
 
  LATTYP: Found a hexagonal cell.
 ALAT       =     6.3876335059
 C/A-ratio  =     0.8335056989
  
  Lattice vectors:
  
 A1 = (   3.1938113920,   5.5318559813,   0.0000000000)
 A2 = (   3.1938113920,  -5.5318559813,   0.0000000000)
 A3 = (   0.0000000000,   0.0000000000,  -5.3241289298)
 
   4 primitive cells build up your supercell.
 

 Routine SETGRP: Setting up the symmetry group for a 
 hexagonal supercell.


 Subroutine GETGRP returns: Found  8 space group operations
 (whereof  4 operations were pure point group operations)
 out of a pool of 24 trial point group operations.


The static configuration has the point symmetry C_2h.
 The point group associated with its full space group is D_2h.


Analysis of symmetry for dynamics (positions and initial velocities):
=====================================================================
 Subroutine PRICEL returns following result:
 
  LATTYP: Found a hexagonal cell.
 ALAT       =     6.3876335059
 C/A-ratio  =     0.8335056989
  
  Lattice vectors:
  
 A1 = (   3.1938113920,   5.5318559813,   0.0000000000)
 A2 = (   3.1938113920,  -5.5318559813,   0.0000000000)
 A3 = (   0.0000000000,   0.0000000000,  -5.3241289298)
 
   4 primitive cells build up your supercell.
 

 Routine SETGRP: Setting up the symmetry group for a 
 hexagonal supercell.


 Subroutine GETGRP returns: Found  8 space group operations
 (whereof  4 operations were pure point group operations)
 out of a pool of 24 trial point group operations.


The dynamic configuration has the point symmetry C_2h.
 The point group associated with its full space group is D_2h.


Analysis of structural, dynamic, and magnetic symmetry:
=====================================================================
 Subroutine PRICEL returns:
 Original cell was already a primitive cell.
 

 Routine SETGRP: Setting up the symmetry group for a 
 hexagonal supercell.


 Subroutine GETGRP returns: Found  4 space group operations
 (whereof  2 operations were pure point group operations)
 out of a pool of 24 trial point group operations.


The magnetic configuration has the point symmetry S_2 .
 The point group associated with its full space group is C_2h.


 Subroutine INISYM returns: Found  4 space group operations
 (whereof  2 operations are pure point group operations),
 and found     1 'primitive' translations

 
 
 KPOINTS: Automatic mesh                          

Automatic generation of k-mesh.
Space group operators:
 irot       det(A)        alpha          n_x          n_y          n_z        tau_x        tau_y        tau_z
    1     1.000000     0.000000     1.000000     0.000000     0.000000     0.000000     0.000000     0.000000
    2    -1.000000     0.000000     1.000000     0.000000     0.000000     0.000000     0.000000     0.000000
    3     1.000000   180.000000     0.866026    -0.499999     0.000000     0.000000     0.000000    -0.500000
    4    -1.000000   180.000000     0.866026    -0.499999     0.000000     0.000000     0.000000    -0.500000
 
 Subroutine IBZKPT returns following result:
 ===========================================
 
 Found      9 irreducible k-points:
 
 Following reciprocal coordinates:
            Coordinates               Weight
  0.000000  0.000000  0.000000      1.000000
  0.500000  0.000000  0.000000      2.000000
  0.500000  0.500000  0.000000      1.000000
  0.000000  0.000000  0.250000      2.000000
  0.500000  0.000000  0.250000      4.000000
  0.500000  0.500000  0.250000      2.000000
  0.000000  0.000000  0.500000      1.000000
  0.500000  0.000000  0.500000      2.000000
  0.500000  0.500000  0.500000      1.000000
 
 Following cartesian coordinates:
            Coordinates               Weight
  0.000000  0.000000  0.000000      1.000000
  0.039138  0.022596  0.000000      2.000000
  0.039138  0.067789  0.000000      1.000000
  0.000000  0.000000  0.046956      2.000000
  0.039138  0.022596  0.046956      4.000000
  0.039138  0.067789  0.046956      2.000000
  0.000000  0.000000  0.093912      1.000000
  0.039138  0.022596  0.093912      2.000000
  0.039138  0.067789  0.093912      1.000000
 
 TETIRR: Found     24 inequivalent tetrahedra from       96


--------------------------------------------------------------------------------------------------------




 Dimension of arrays:
   k-points           NKPTS =      9   k-points in BZ     NKDIM =      9   number of bands    NBANDS=    192
   number of dos      NEDOS =    301   number of ions     NIONS =     40
   non local maximal  LDIM  =      6   non local SUM 2l+1 LMDIM =     18
   total plane-waves  NPLWV = 368640
   max r-space proj   IRMAX =   9164   max aug-charges    IRDMAX=   9965
   dimension x,y,z NGX =    96 NGY =   96 NGZ =   40
   dimension x,y,z NGXF=   140 NGYF=  140 NGZF=   60
   support grid    NGXF=   140 NGYF=  140 NGZF=   60
   ions per type =              24   8   8
   NGX,Y,Z   is equivalent  to a cutoff of  12.49, 12.49, 12.49 a.u.
   NGXF,Y,Z  is equivalent  to a cutoff of  18.22, 18.22, 18.74 a.u.

 SYSTEM =  CsNiF3 AF without U                     
 POSCAR =  For VASP. System= small                 

 Startparameter for this run:
   NWRITE =      2    write-flag & timer
   PREC   = high      normal or accurate (medium, high low for compatibility)
   ISTART =      0    job   : 0-new  1-cont  2-samecut
   ICHARG =      2    charge: 1-file 2-atom 10-const
   ISPIN  =      2    spin polarized calculation?
   LNONCOLLINEAR =      F non collinear calculations
   LSORBIT =      F    spin-orbit coupling
   INIWAV =      1    electr: 0-lowe 1-rand  2-diag
   LASPH  =      F    aspherical Exc in radial PAW
   METAGGA=      F    non-selfconsistent MetaGGA calc.

 Electronic Relaxation 1
   ENCUT  =  520.0 eV  38.22 Ry    6.18 a.u.  23.75 23.75  9.90*2*pi/ulx,y,z
   ENINI  =  520.0     initial cutoff
   ENAUG  =  613.6 eV  augmentation charge cutoff
   NELM   =    100;   NELMIN=  2; NELMDL= -5     # of ELM steps 
   EDIFF  = 0.1E-06   stopping-criterion for ELM
   LREAL  =      T    real-space projection
   NLSPLINE    = F    spline interpolate recip. space projectors
   LCOMPAT=      F    compatible to vasp.4.4
   GGA_COMPAT  = T    GGA compatible to vasp.4.4-vasp.4.6
   LMAXPAW     = -100 max onsite density
   LMAXMIX     =    2 max onsite mixed and CHGCAR
   VOSKOWN=      0    Vosko Wilk Nusair interpolation
   ROPT   =    0.00000   0.00000   0.00000
 Ionic relaxation
   EDIFFG = 0.1E-05   stopping-criterion for IOM
   NSW    =      0    number of steps for IOM
   NBLOCK =      1;   KBLOCK =      1    inner block; outer block 
   IBRION =     -1    ionic relax: 0-MD 1-quasi-New 2-CG
   NFREE  =      0    steps in history (QN), initial steepest desc. (CG)
   ISIF   =      2    stress and relaxation
   IWAVPR =     10    prediction:  0-non 1-charg 2-wave 3-comb
   ISYM   =      2    0-nonsym 1-usesym 2-fastsym
   LCORR  =      T    Harris-Foulkes like correction to forces

   POTIM  = 0.5000    time-step for ionic-motion
   TEIN   =    0.0    initial temperature
   TEBEG  =    0.0;   TEEND  =   0.0 temperature during run
   SMASS  =  -3.00    Nose mass-parameter (am)
   estimated Nose-frequenzy (Omega)   =  0.10E-29 period in steps =****** mass=  -0.373E-26a.u.
   SCALEE = 1.0000    scale energy and forces
   NPACO  =    256;   APACO  = 16.0  distance and # of slots for P.C.
   PSTRESS=    0.0 pullay stress

  Mass of Ions in am
   POMASS =  19.00 58.69132.90
  Ionic Valenz
   ZVAL   =   7.00 10.00  9.00
  Atomic Wigner-Seitz radii
   RWIGS  =  -1.00 -1.00 -1.00
  virtual crystal weights 
   VCA    =   1.00  1.00  1.00
   NELECT =     320.0000    total number of electrons
   NUPDOWN=      -1.0000    fix difference up-down

 DOS related values:
   EMIN   =  10.00;   EMAX   =-10.00  energy-range for DOS
   EFERMI =   0.00
   ISMEAR =    -5;   SIGMA  =   0.20  broadening in eV -4-tet -1-fermi 0-gaus

 Electronic relaxation 2 (details)
   IALGO  =     38    algorithm
   LDIAG  =      T    sub-space diagonalisation (order eigenvalues)
   LSUBROT=      F    optimize rotation matrix (better conditioning)
   TURBO    =      0    0=normal 1=particle mesh
   IRESTART =      0    0=no restart 2=restart with 2 vectors
   NREBOOT  =      0    no. of reboots
   NMIN     =      0    reboot dimension
   EREF     =   0.00    reference energy to select bands
   IMIX   =      4    mixing-type and parameters
     AMIX     =   0.40;   BMIX     =  1.00
     AMIX_MAG =   1.60;   BMIX_MAG =  1.00
     AMIN     =   0.10
     WC   =   100.;   INIMIX=   1;  MIXPRE=   1;  MAXMIX= -45

 Intra band minimization:
   WEIMIN = 0.0000     energy-eigenvalue tresh-hold
   EBREAK =  0.13E-09  absolut break condition
   DEPER  =   0.30     relativ break condition  

   TIME   =   0.40     timestep for ELM

  volume/ion in A,a.u.               =      18.81       126.96
  Fermi-wavevector in a.u.,A,eV,Ry     =   1.231077  2.326398 20.620322  1.515551
  Thomas-Fermi vector in A             =   2.365901
 
 Write flags
   LWAVE        =      F    write WAVECAR
   LDOWNSAMPLE  =      F    k-point downsampling of WAVECAR
   LCHARG       =      F    write CHGCAR
   LVTOT        =      F    write LOCPOT, total local potential
   LVHAR        =      F    write LOCPOT, Hartree potential only
   LELF         =      F    write electronic localiz. function (ELF)
   LORBIT       =     11    0 simple, 1 ext, 2 COOP (PROOUT), +10 PAW based schemes


 Dipole corrections
   LMONO  =      F    monopole corrections only (constant potential shift)
   LDIPOL =      F    correct potential (dipole corrections)
   IDIPOL =      0    1-x, 2-y, 3-z, 4-all directions 
   EPSILON=  1.0000000 bulk dielectric constant

 Exchange correlation treatment:
   GGA     =    --    GGA type
   LEXCH   =     8    internal setting for exchange type
   VOSKOWN=      0    Vosko Wilk Nusair interpolation
   LHFCALC =     F    Hartree Fock is set to
   LHFONE  =     F    Hartree Fock one center treatment
   AEXX    =    0.0000 exact exchange contribution

 Linear response parameters
   LEPSILON=     F    determine dielectric tensor
   LRPA    =     F    only Hartree local field effects (RPA)
   LNABLA  =     F    use nabla operator in PAW spheres
   LVEL    =     F    velocity operator in full k-point grid
   LINTERFAST=   F  fast interpolation
   KINTER  =     0    interpolate to denser k-point grid
   CSHIFT  =0.1000    complex shift for real part using Kramers Kronig
   OMEGAMAX=  -1.0    maximum frequency
   DEG_THRESHOLD= 0.2000000E-02 threshold for treating states as degnerate
   RTIME   =   -0.100 relaxation time in fs
  (WPLASMAI=    0.000 imaginary part of plasma frequency in eV, 0.658/RTIME)
   DFIELD  = 0.0000000 0.0000000 0.0000000 field for delta impulse in time
 
 Orbital magnetization related:
   ORBITALMAG=     F  switch on orbital magnetization
   LCHIMAG   =     F  perturbation theory with respect to B field
   DQ        =  0.001000  dq finite difference perturbation B field
   LLRAUG    =     F  two centre corrections for induced B field



--------------------------------------------------------------------------------------------------------


 Static calculation
 charge density and potential will be updated during run
 spin polarized calculation
 Variant of blocked Davidson
 Davidson routine will perform the subspace rotation
 perform sub-space diagonalisation
    after iterative eigenvector-optimisation
 modified Broyden-mixing scheme, WC =      100.0
 initial mixing is a Kerker type mixing with AMIX =  0.4000 and BMIX =      1.0000
 Hartree-type preconditioning will be used
 using additional bands           32
 real space projection scheme for non local part
 use partial core corrections
 calculate Harris-corrections to forces 
   (improved forces if not selfconsistent)
 use gradient corrections 
 use of overlap-Matrix (Vanderbilt PP)
 Fermi weights with tetrahedron method with Bloechl corrections


--------------------------------------------------------------------------------------------------------


  energy-cutoff  :      520.00
  volume of cell :      752.52
      direct lattice vectors                 reciprocal lattice vectors
    12.775245568  0.000000000  0.000000000     0.078276382  0.045192789  0.000000000
    -6.387622784 11.063711963  0.000000000     0.000000000  0.090385578  0.000000000
     0.000000000  0.000000000  5.324128930     0.000000000  0.000000000  0.187824152

  length of vectors
    12.775245568 12.775267012  5.324128930     0.090385730  0.090385578  0.187824152


 
 k-points in units of 2pi/SCALE and weight: Automatic mesh                          
   0.00000000  0.00000000  0.00000000       0.062
   0.03913819  0.02259639  0.00000000       0.125
   0.03913819  0.06778918  0.00000000       0.062
   0.00000000  0.00000000  0.04695604       0.125
   0.03913819  0.02259639  0.04695604       0.250
   0.03913819  0.06778918  0.04695604       0.125
   0.00000000  0.00000000  0.09391208       0.062
   0.03913819  0.02259639  0.09391208       0.125
   0.03913819  0.06778918  0.09391208       0.062
 
 k-points in reciprocal lattice and weights: Automatic mesh                          
   0.00000000  0.00000000  0.00000000       0.062
   0.50000000  0.00000000  0.00000000       0.125
   0.50000000  0.50000000  0.00000000       0.062
   0.00000000  0.00000000  0.25000000       0.125
   0.50000000  0.00000000  0.25000000       0.250
   0.50000000  0.50000000  0.25000000       0.125
   0.00000000  0.00000000  0.50000000       0.062
   0.50000000  0.00000000  0.50000000       0.125
   0.50000000  0.50000000  0.50000000       0.062
 
 position of ions in fractional coordinates (direct lattice) 
   0.57007855  0.64016376  0.25000000
   0.07007855  0.64016376  0.25000000
   0.57007855  0.14016376  0.25000000
   0.07007855  0.14016376  0.25000000
   0.85983624  0.92992145  0.25000000
   0.35983624  0.92992145  0.25000000
   0.85983624  0.42992145  0.25000000
   0.35983624  0.42992145  0.25000000
   0.57008349  0.92991651  0.25000000
   0.07008349  0.92991651  0.25000000
   0.57008349  0.42991651  0.25000000
   0.07008349  0.42991651  0.25000000
   0.92992145  0.85983624  0.75000000
   0.42992145  0.85983624  0.75000000
   0.92992145  0.35983624  0.75000000
   0.42992145  0.35983624  0.75000000
   0.64016376  0.57007855  0.75000000
   0.14016376  0.57007855  0.75000000
   0.64016376  0.07007855  0.75000000
   0.14016376  0.07007855  0.75000000
   0.92991651  0.57008349  0.75000000
   0.42991651  0.57008349  0.75000000
   0.92991651  0.07008349  0.75000000
   0.42991651  0.07008349  0.75000000
   0.00000000  0.00000000  0.00000000
   0.50000000  0.00000000  0.00000000
   1.00000000  0.50000000  0.00000000
   0.50000000  0.50000000  0.00000000
   0.00000000  0.00000000  0.50000000
   0.50000000  0.00000000  0.50000000
   1.00000000  0.50000000  0.50000000
   0.50000000  0.50000000  0.50000000
   0.66666713  0.83333287  0.75000000
   0.16666713  0.83333287  0.75000000
   0.66666713  0.33333287  0.75000000
   0.16666713  0.33333287  0.75000000
   0.83333287  0.66666713  0.25000000
   0.33333287  0.66666713  0.25000000
   0.83333287  0.16666713  0.25000000
   0.33333287  0.16666713  0.25000000
 
 position of ions in cartesian coordinates  (Angst):
   3.19376888  7.08258743  1.33103223
  -3.19385391  7.08258743  1.33103223
   6.38758027  1.55073145  1.33103223
  -0.00004252  1.55073145  1.33103223
   5.04463170 10.28838306  1.33103223
  -1.34299108 10.28838306  1.33103223
   8.23844310  4.75652708  1.33103223
   1.85082031  4.75652708  1.33103223
   1.34300064 10.28832845  1.33103223
  -5.04462215 10.28832845  1.33103223
   4.53681203  4.75647247  1.33103223
  -1.85081076  4.75647247  1.33103223
   6.38766530  9.51298052  3.99309670
   0.00004252  9.51298052  3.99309670
   9.58147669  3.98112454  3.99309670
   3.19385391  3.98112454  3.99309670
   4.53680247  6.30718488  3.99309670
  -1.85082031  6.30718488  3.99309670
   7.73061386  0.77532890  3.99309670
   1.34299108  0.77532890  3.99309670
   8.23843354  6.30723949  3.99309670
   1.85081076  6.30723949  3.99309670
  11.43224493  0.77538351  3.99309670
   5.04462215  0.77538351  3.99309670
   0.00000000  0.00000000  0.00000000
   6.38762278  0.00000000  0.00000000
   9.58143418  5.53185598  0.00000000
   3.19381139  5.53185598  0.00000000
   0.00000000  0.00000000  2.66206446
   6.38762278  0.00000000  2.66206446
   9.58143418  5.53185598  2.66206446
   3.19381139  5.53185598  2.66206446
   3.19382031  9.21975482  3.99309670
  -3.19380247  9.21975482  3.99309670
   6.38763170  3.68789884  3.99309670
   0.00000892  3.68789884  3.99309670
   6.38761387  7.37581312  1.33103223
  -0.00000892  7.37581312  1.33103223
   9.58142526  1.84395714  1.33103223
   3.19380247  1.84395714  1.33103223
 


--------------------------------------------------------------------------------------------------------


 k-point  1 :   0.0000 0.0000 0.0000  plane waves:   20197
 k-point  2 :   0.5000 0.0000 0.0000  plane waves:   20226
 k-point  3 :   0.5000 0.5000 0.0000  plane waves:   20226
 k-point  4 :   0.0000 0.0000 0.2500  plane waves:   20294
 k-point  5 :   0.5000 0.0000 0.2500  plane waves:   20258
 k-point  6 :   0.5000 0.5000 0.2500  plane waves:   20258
 k-point  7 :   0.0000 0.0000 0.5000  plane waves:   20240
 k-point  8 :   0.5000 0.0000 0.5000  plane waves:   20320
 k-point  9 :   0.5000 0.5000 0.5000  plane waves:   20320

 maximum and minimum number of plane-waves per node :       882      806

 maximum number of plane-waves:     20320
 maximum index in each direction: 
   IXMAX=   23   IYMAX=   23   IZMAX=    9
   IXMIN=  -24   IYMIN=  -24   IZMIN=  -10


 real space projection operators:
  total allocation   :      19689.81 KBytes
  max/ min on nodes  :        844.06        757.81


 parallel 3D FFT for wavefunctions:
    minimum data exchange during FFTs selected (reduces bandwidth)
 parallel 3D FFT for charge:
    minimum data exchange during FFTs selected (reduces bandwidth)


 total amount of memory used by VASP MPI-rank0    66568. kBytes
=======================================================================

   base      :      30000. kBytes
   nonlr-proj:       7318. kBytes
   fftplans  :       1395. kBytes
   grid      :       3519. kBytes
   one-center:         62. kBytes
   wavefun   :      24274. kBytes
 
     INWAV:  cpu time    0.0000: real time    0.0000
 Broyden mixing: mesh for mixing (old mesh)
   NGX = 47   NGY = 47   NGZ = 19
  (NGX  =140   NGY  =140   NGZ  = 60)
  gives a total of  41971 points

 initial charge density was supplied:
 charge density of overlapping atoms calculated
 number of electron     320.0000000 magnetization      -0.0000000
 keeping initial charge density in first step


--------------------------------------------------------------------------------------------------------


 Maximum index for non-local projection operator          385
 Maximum index for augmentation-charges          493 (set IRDMAX)


--------------------------------------------------------------------------------------------------------


 First call to EWALD:  gamma=   0.195
 Maximum number of real-space cells 2x 2x 4
 Maximum number of reciprocal cells 4x 4x 2

    FEWALD:  cpu time    0.0019: real time    0.0019


--------------------------------------- Iteration      1(   1)  ---------------------------------------


    POTLOK:  cpu time    0.0494: real time    0.0529
    SETDIJ:  cpu time    0.0075: real time    0.0075
     EDDAV:  cpu time    8.1860: real time    8.2535
 BZINTS: Fermi energy: 20.030975;320.000000 electrons
         Band energy:1695.989654;  BLOECHL correction: -0.047878
       DOS:  cpu time    0.0120: real time    0.0120
    --------------------------------------------
      LOOP:  cpu time    8.2549: real time    8.3259

 eigenvalue-minimisations  :  6912
 total energy-change (2. order) : 0.3969011E+04  (-0.1462840E+05)
 number of electron     320.0000000 magnetization       0.0000000
 augmentation part      320.0000000 magnetization       0.0000000

 Free energy of the ion-electron system (eV)
  ---------------------------------------------------
  alpha Z        PSCENC =      1278.33848294
  Ewald energy   TEWEN  =    -16011.11606870
  -Hartree energ DENC   =    -12510.24273293
  -exchange      EXHF   =         0.00000000
  -V(xc)+E(xc)   XCENC  =      1221.39523481
  PAW double counting   =     19640.54138542   -20241.63226317
  entropy T*S    EENTRO =         0.00000000
  eigenvalues    EBANDS =      1695.98965448
  atomic energy  EATOM  =     28895.73697308
  Solvation  Ediel_sol  =         0.00000000
  ---------------------------------------------------
  free energy    TOTEN  =      3969.01066593 eV

  energy without entropy =     3969.01066593  energy(sigma->0) =     3969.01066593


--------------------------------------------------------------------------------------------------------




--------------------------------------- Iteration      1(   2)  ---------------------------------------


     EDDAV:  cpu time    8.6188: real time    8.6425
 BZINTS: Fermi energy:  5.624150;320.000000 electrons
         Band energy:***********;  BLOECHL correction: -0.062851
       DOS:  cpu time    0.0113: real time    0.0113
    --------------------------------------------
      LOOP:  cpu time    8.6301: real time    8.6537

 eigenvalue-minimisations  :  7440
 total energy-change (2. order) :-0.3477738E+04  (-0.3216210E+04)
 number of electron     320.0000000 magnetization       0.0000000
 augmentation part      320.0000000 magnetization       0.0000000

 Free energy of the ion-electron system (eV)
  ---------------------------------------------------
  alpha Z        PSCENC =      1278.33848294
  Ewald energy   TEWEN  =    -16011.11606870
  -Hartree energ DENC   =    -12510.24273293
  -exchange      EXHF   =         0.00000000
  -V(xc)+E(xc)   XCENC  =      1221.39523481
  PAW double counting   =     19640.54138542   -20241.63226317
  entropy T*S    EENTRO =         0.00000000
  eigenvalues    EBANDS =     -1781.74788677
  atomic energy  EATOM  =     28895.73697308
  Solvation  Ediel_sol  =         0.00000000
  ---------------------------------------------------
  free energy    TOTEN  =       491.27312468 eV

  energy without entropy =      491.27312468  energy(sigma->0) =      491.27312468


--------------------------------------------------------------------------------------------------------




--------------------------------------- Iteration      1(   3)  ---------------------------------------


     EDDAV:  cpu time    8.6027: real time    8.6168
 BZINTS: Fermi energy:  3.697564;320.000000 electrons
         Band energy:***********;  BLOECHL correction: -0.004041
       DOS:  cpu time    0.0116: real time    0.0117
    --------------------------------------------
      LOOP:  cpu time    8.6143: real time    8.6285

 eigenvalue-minimisations  :  7496
 total energy-change (2. order) :-0.6616030E+03  (-0.6419576E+03)
 number of electron     320.0000000 magnetization       0.0000000
 augmentation part      320.0000000 magnetization       0.0000000

 Free energy of the ion-electron system (eV)
  ---------------------------------------------------
  alpha Z        PSCENC =      1278.33848294
  Ewald energy   TEWEN  =    -16011.11606870
  -Hartree energ DENC   =    -12510.24273293
  -exchange      EXHF   =         0.00000000
  -V(xc)+E(xc)   XCENC  =      1221.39523481
  PAW double counting   =     19640.54138542   -20241.63226317
  entropy T*S    EENTRO =         0.00000000
  eigenvalues    EBANDS =     -2443.35092161
  atomic energy  EATOM  =     28895.73697308
  Solvation  Ediel_sol  =         0.00000000
  ---------------------------------------------------
  free energy    TOTEN  =      -170.32991015 eV

  energy without entropy =     -170.32991015  energy(sigma->0) =     -170.32991015


--------------------------------------------------------------------------------------------------------




--------------------------------------- Iteration      1(   4)  ---------------------------------------


     EDDAV:  cpu time    9.2507: real time    9.3516
 BZINTS: Fermi energy:  3.539081;320.000000 electrons
         Band energy:***********;  BLOECHL correction: -0.002108
       DOS:  cpu time    0.0110: real time    0.0110
    --------------------------------------------
      LOOP:  cpu time    9.2617: real time    9.3627

 eigenvalue-minimisations  :  8024
 total energy-change (2. order) :-0.3848162E+02  (-0.3776046E+02)
 number of electron     320.0000000 magnetization       0.0000000
 augmentation part      320.0000000 magnetization       0.0000000

 Free energy of the ion-electron system (eV)
  ---------------------------------------------------
  alpha Z        PSCENC =      1278.33848294
  Ewald energy   TEWEN  =    -16011.11606870
  -Hartree energ DENC   =    -12510.24273293
  -exchange      EXHF   =         0.00000000
  -V(xc)+E(xc)   XCENC  =      1221.39523481
  PAW double counting   =     19640.54138542   -20241.63226317
  entropy T*S    EENTRO =         0.00000000
  eigenvalues    EBANDS =     -2481.83254433
  atomic energy  EATOM  =     28895.73697308
  Solvation  Ediel_sol  =         0.00000000
  ---------------------------------------------------
  free energy    TOTEN  =      -208.81153288 eV

  energy without entropy =     -208.81153288  energy(sigma->0) =     -208.81153288


--------------------------------------------------------------------------------------------------------




--------------------------------------- Iteration      1(   5)  ---------------------------------------


     EDDAV:  cpu time    9.6646: real time    9.7267
 BZINTS: Fermi energy:  3.527750;320.000000 electrons
         Band energy:***********;  BLOECHL correction: -0.001554
       DOS:  cpu time    0.0107: real time    0.0107
    CHARGE:  cpu time    0.3904: real time    0.3907
    MIXING:  cpu time    0.0015: real time    0.0016
    --------------------------------------------
      LOOP:  cpu time   10.0673: real time   10.1297

 eigenvalue-minimisations  :  8704
 total energy-change (2. order) :-0.1486533E+01  (-0.1479441E+01)
 number of electron     320.0000868 magnetization       0.0001099
 augmentation part       64.5284491 magnetization       0.0043779

 Broyden mixing:
  rms(total) = 0.37836E+01    rms(broyden)= 0.37788E+01
  rms(prec ) = 0.46793E+01
  weight for this iteration     100.00

 Free energy of the ion-electron system (eV)
  ---------------------------------------------------
  alpha Z        PSCENC =      1278.33848294
  Ewald energy   TEWEN  =    -16011.11606870
  -Hartree energ DENC   =    -12510.24273293
  -exchange      EXHF   =         0.00000000
  -V(xc)+E(xc)   XCENC  =      1221.39523481
  PAW double counting   =     19640.54138542   -20241.63226317
  entropy T*S    EENTRO =         0.00000000
  eigenvalues    EBANDS =     -2483.31907761
  atomic energy  EATOM  =     28895.73697308
  Solvation  Ediel_sol  =         0.00000000
  ---------------------------------------------------
  free energy    TOTEN  =      -210.29806615 eV

  energy without entropy =     -210.29806615  energy(sigma->0) =     -210.29806615


--------------------------------------------------------------------------------------------------------




--------------------------------------- Iteration      1(   6)  ---------------------------------------


    POTLOK:  cpu time    0.0488: real time    0.0506
    SETDIJ:  cpu time    0.0070: real time    0.0070
     EDDAV:  cpu time   10.3468: real time   10.3868
 BZINTS: Fermi energy: -0.933538;320.000000 electrons
         Band energy:***********;  BLOECHL correction:  0.000000
       DOS:  cpu time    0.0026: real time    0.0026
    CHARGE:  cpu time    0.3983: real time    0.3985
    MIXING:  cpu time    0.0012: real time    0.0012
    --------------------------------------------
      LOOP:  cpu time   10.8046: real time   10.8467

 eigenvalue-minimisations  :  9696
 total energy-change (2. order) : 0.2742752E+02  (-0.2118289E+02)
 number of electron     320.0000823 magnetization       0.0000790
 augmentation part       66.3268810 magnetization      -0.0019020

 Broyden mixing:
  rms(total) = 0.20123E+01    rms(broyden)= 0.20107E+01
  rms(prec ) = 0.21660E+01
  weight for this iteration     100.00

 eigenvalues of (default mixing * dielectric matrix)
  average eigenvalue GAMMA=   0.6112
  0.6112

 Free energy of the ion-electron system (eV)
  ---------------------------------------------------
  alpha Z        PSCENC =      1278.33848294
  Ewald energy   TEWEN  =    -16011.11606870
  -Hartree energ DENC   =    -12659.19306925
  -exchange      EXHF   =         0.00000000
  -V(xc)+E(xc)   XCENC  =      1242.55088710
  PAW double counting   =     20151.92480700   -20724.33246531
  entropy T*S    EENTRO =         0.00000000
  eigenvalues    EBANDS =     -2356.78008842
  atomic energy  EATOM  =     28895.73697308
  Solvation  Ediel_sol  =         0.00000000
  ---------------------------------------------------
  free energy    TOTEN  =      -182.87054156 eV

  energy without entropy =     -182.87054156  energy(sigma->0) =     -182.87054156


--------------------------------------------------------------------------------------------------------




--------------------------------------- Iteration      1(   7)  ---------------------------------------


    POTLOK:  cpu time    0.0470: real time    0.0488
    SETDIJ:  cpu time    0.0076: real time    0.0076
     EDDAV:  cpu time   10.6097: real time   10.6591
 BZINTS: Fermi energy:  0.432577;320.000000 electrons
         Band energy:***********;  BLOECHL correction:  0.000000
       DOS:  cpu time    0.0022: real time    0.0022
    CHARGE:  cpu time    0.3818: real time    0.3866
    MIXING:  cpu time    0.0011: real time    0.0011
    --------------------------------------------
      LOOP:  cpu time   11.0493: real time   11.1053

 eigenvalue-minimisations  :  9576
 total energy-change (2. order) : 0.1699200E+00  (-0.2970266E+01)
 number of electron     320.0000822 magnetization       0.0000578
 augmentation part       64.3392585 magnetization       0.0011293

 Broyden mixing:
  rms(total) = 0.85812E+00    rms(broyden)= 0.85795E+00
  rms(prec ) = 0.93139E+00
  weight for this iteration     100.00

 eigenvalues of (default mixing * dielectric matrix)
  average eigenvalue GAMMA=   0.6662
  0.6662  0.6662

 Free energy of the ion-electron system (eV)
  ---------------------------------------------------
  alpha Z        PSCENC =      1278.33848294
  Ewald energy   TEWEN  =    -16011.11606870
  -Hartree energ DENC   =    -12689.07725577
  -exchange      EXHF   =         0.00000000
  -V(xc)+E(xc)   XCENC  =      1238.79046734
  PAW double counting   =     20305.35233422   -20909.34401301
  entropy T*S    EENTRO =         0.00000000
  eigenvalues    EBANDS =     -2291.38154161
  atomic energy  EATOM  =     28895.73697308
  Solvation  Ediel_sol  =         0.00000000
  ---------------------------------------------------
  free energy    TOTEN  =      -182.70062152 eV

  energy without entropy =     -182.70062152  energy(sigma->0) =     -182.70062152


--------------------------------------------------------------------------------------------------------




--------------------------------------- Iteration      1(   8)  ---------------------------------------


    POTLOK:  cpu time    0.0471: real time    0.0500
    SETDIJ:  cpu time    0.0070: real time    0.0070
     EDDAV:  cpu time    9.5775: real time    9.6035
 BZINTS: Fermi energy:  0.581948;320.000000 electrons
         Band energy:***********;  BLOECHL correction:  0.000000
       DOS:  cpu time    0.0025: real time    0.0025
    CHARGE:  cpu time    0.3791: real time    0.3791
    MIXING:  cpu time    0.0054: real time    0.0054
    --------------------------------------------
      LOOP:  cpu time   10.0185: real time   10.0474

 eigenvalue-minimisations  :  8552
 total energy-change (2. order) :-0.3650437E+00  (-0.4377325E+00)
 number of electron     320.0000827 magnetization       0.0000084
 augmentation part       64.4263165 magnetization      -0.0005697

 Broyden mixing:
  rms(total) = 0.45898E+00    rms(broyden)= 0.45886E+00
  rms(prec ) = 0.53604E+00
  weight for this iteration     100.00

 eigenvalues of (default mixing * dielectric matrix)
  average eigenvalue GAMMA=   1.0352
  1.7083  0.6987  0.6987

 Free energy of the ion-electron system (eV)
  ---------------------------------------------------
  alpha Z        PSCENC =      1278.33848294
  Ewald energy   TEWEN  =    -16011.11606870
  -Hartree energ DENC   =    -12675.93785543
  -exchange      EXHF   =         0.00000000
  -V(xc)+E(xc)   XCENC  =      1238.40260220
  PAW double counting   =     20355.35861655   -20965.66848182
  entropy T*S    EENTRO =         0.00000000
  eigenvalues    EBANDS =     -2298.17993406
  atomic energy  EATOM  =     28895.73697308
  Solvation  Ediel_sol  =         0.00000000
  ---------------------------------------------------
  free energy    TOTEN  =      -183.06566524 eV

  energy without entropy =     -183.06566524  energy(sigma->0) =     -183.06566524


--------------------------------------------------------------------------------------------------------




--------------------------------------- Iteration      1(   9)  ---------------------------------------


    POTLOK:  cpu time    0.0590: real time    0.0590
    SETDIJ:  cpu time    0.0069: real time    0.0069
     EDDAV:  cpu time   10.2636: real time   10.2846
 BZINTS: Fermi energy:  0.336190;320.000000 electrons
         Band energy:***********;  BLOECHL correction:  0.000000
       DOS:  cpu time    0.0022: real time    0.0022
    CHARGE:  cpu time    0.4128: real time    0.4151
    MIXING:  cpu time    0.0014: real time    0.0014
    --------------------------------------------
      LOOP:  cpu time   10.7459: real time   10.7692

 eigenvalue-minimisations  :  9360
 total energy-change (2. order) : 0.1052399E+00  (-0.6339745E-01)
 number of electron     320.0000824 magnetization       0.0000009
 augmentation part       64.5888270 magnetization       0.0027378

 Broyden mixing:
  rms(total) = 0.20972E+00    rms(broyden)= 0.20968E+00
  rms(prec ) = 0.22722E+00
  weight for this iteration     100.00

 eigenvalues of (default mixing * dielectric matrix)
  average eigenvalue GAMMA=   1.1128
  2.4601  0.7739  0.6086  0.6086

 Free energy of the ion-electron system (eV)
  ---------------------------------------------------
  alpha Z        PSCENC =      1278.33848294
  Ewald energy   TEWEN  =    -16011.11606870
  -Hartree energ DENC   =    -12688.71593606
  -exchange      EXHF   =         0.00000000
  -V(xc)+E(xc)   XCENC  =      1240.01885607
  PAW double counting   =     20536.43461572   -21158.86690783
  entropy T*S    EENTRO =         0.00000000
  eigenvalues    EBANDS =     -2274.79044050
  atomic energy  EATOM  =     28895.73697308
  Solvation  Ediel_sol  =         0.00000000
  ---------------------------------------------------
  free energy    TOTEN  =      -182.96042529 eV

  energy without entropy =     -182.96042529  energy(sigma->0) =     -182.96042529


--------------------------------------------------------------------------------------------------------




--------------------------------------- Iteration      1(  10)  ---------------------------------------


    POTLOK:  cpu time    0.0510: real time    0.0548
    SETDIJ:  cpu time    0.0410: real time    0.0876
     EDDAV:  cpu time   10.3081: real time   10.3506
 BZINTS: Fermi energy:  0.473934;320.000000 electrons
         Band energy:***********;  BLOECHL correction:  0.000000
       DOS:  cpu time    0.0025: real time    0.0025
    CHARGE:  cpu time    0.4186: real time    0.4188
    MIXING:  cpu time    0.0018: real time    0.0018
    --------------------------------------------
      LOOP:  cpu time   10.8230: real time   10.9160

 eigenvalue-minimisations  :  9248
 total energy-change (2. order) :-0.2542084E-01  (-0.2389085E-01)
 number of electron     320.0000826 magnetization       0.0000009
 augmentation part       64.4851379 magnetization       0.0003406

 Broyden mixing:
  rms(total) = 0.70420E-01    rms(broyden)= 0.70398E-01
  rms(prec ) = 0.85257E-01
  weight for this iteration     100.00

 eigenvalues of (default mixing * dielectric matrix)
  average eigenvalue GAMMA=   1.1065
  2.4622  1.0983  0.6586  0.6586  0.6546

 Free energy of the ion-electron system (eV)
  ---------------------------------------------------
  alpha Z        PSCENC =      1278.33848294
  Ewald energy   TEWEN  =    -16011.11606870
  -Hartree energ DENC   =    -12693.62931433
  -exchange      EXHF   =         0.00000000
  -V(xc)+E(xc)   XCENC  =      1240.07146917
  PAW double counting   =     20561.44961125   -21187.36223036
  entropy T*S    EENTRO =         0.00000000
  eigenvalues    EBANDS =     -2266.47476919
  atomic energy  EATOM  =     28895.73697308
  Solvation  Ediel_sol  =         0.00000000
  ---------------------------------------------------
  free energy    TOTEN  =      -182.98584613 eV

  energy without entropy =     -182.98584613  energy(sigma->0) =     -182.98584613


--------------------------------------------------------------------------------------------------------




--------------------------------------- Iteration      1(  11)  ---------------------------------------


    POTLOK:  cpu time    0.0487: real time    0.0498
    SETDIJ:  cpu time    0.0070: real time    0.0070
     EDDAV:  cpu time   10.4928: real time   10.6096
 BZINTS: Fermi energy:  0.562071;320.000000 electrons
         Band energy:***********;  BLOECHL correction:  0.000000
       DOS:  cpu time    0.0025: real time    0.0025
    CHARGE:  cpu time    0.3749: real time    0.3752
    MIXING:  cpu time    0.0013: real time    0.0013
    --------------------------------------------
      LOOP:  cpu time   10.9271: real time   11.0453

 eigenvalue-minimisations  :  9776
 total energy-change (2. order) :-0.9698245E-03  (-0.4165935E-02)
 number of electron     320.0000827 magnetization       0.0000003
 augmentation part       64.4695550 magnetization      -0.0005160

 Broyden mixing:
  rms(total) = 0.24107E-01    rms(broyden)= 0.24025E-01
  rms(prec ) = 0.28335E-01
  weight for this iteration     100.00

 eigenvalues of (default mixing * dielectric matrix)
  average eigenvalue GAMMA=   1.1103
  2.4433  1.3523  0.9069  0.6577  0.6577  0.6441

 Free energy of the ion-electron system (eV)
  ---------------------------------------------------
  alpha Z        PSCENC =      1278.33848294
  Ewald energy   TEWEN  =    -16011.11606870
  -Hartree energ DENC   =    -12694.32023056
  -exchange      EXHF   =         0.00000000
  -V(xc)+E(xc)   XCENC  =      1239.88278447
  PAW double counting   =     20556.11038491   -21182.36357695
  entropy T*S    EENTRO =         0.00000000
  eigenvalues    EBANDS =     -2265.25556514
  atomic energy  EATOM  =     28895.73697308
  Solvation  Ediel_sol  =         0.00000000
  ---------------------------------------------------
  free energy    TOTEN  =      -182.98681596 eV

  energy without entropy =     -182.98681596  energy(sigma->0) =     -182.98681596


--------------------------------------------------------------------------------------------------------




--------------------------------------- Iteration      1(  12)  ---------------------------------------


    POTLOK:  cpu time    0.0468: real time    0.0486
    SETDIJ:  cpu time    0.0105: real time    0.0112
     EDDAV:  cpu time    8.7654: real time    8.8111
 BZINTS: Fermi energy:  0.562068;320.000000 electrons
         Band energy:***********;  BLOECHL correction:  0.000000
       DOS:  cpu time    0.0024: real time    0.0024
    CHARGE:  cpu time    0.3755: real time    0.3758
    MIXING:  cpu time    0.0014: real time    0.0014
    --------------------------------------------
      LOOP:  cpu time    9.2021: real time    9.2505

 eigenvalue-minimisations  :  7568
 total energy-change (2. order) :-0.3288661E-02  (-0.1250523E-02)
 number of electron     320.0000827 magnetization      -0.0000001
 augmentation part       64.4785208 magnetization       0.0000528

 Broyden mixing:
  rms(total) = 0.12039E-01    rms(broyden)= 0.12032E-01
  rms(prec ) = 0.14598E-01
  weight for this iteration     100.00

 eigenvalues of (default mixing * dielectric matrix)
  average eigenvalue GAMMA=   1.1874
  2.4966  1.9056  1.1029  0.6653  0.6653  0.8279  0.6481

 Free energy of the ion-electron system (eV)
  ---------------------------------------------------
  alpha Z        PSCENC =      1278.33848294
  Ewald energy   TEWEN  =    -16011.11606870
  -Hartree energ DENC   =    -12696.61813586
  -exchange      EXHF   =         0.00000000
  -V(xc)+E(xc)   XCENC  =      1240.03108374
  PAW double counting   =     20556.25276767   -21182.40405375
  entropy T*S    EENTRO =         0.00000000
  eigenvalues    EBANDS =     -2263.21115373
  atomic energy  EATOM  =     28895.73697308
  Solvation  Ediel_sol  =         0.00000000
  ---------------------------------------------------
  free energy    TOTEN  =      -182.99010462 eV

  energy without entropy =     -182.99010462  energy(sigma->0) =     -182.99010462


--------------------------------------------------------------------------------------------------------




--------------------------------------- Iteration      1(  13)  ---------------------------------------


    POTLOK:  cpu time    0.0470: real time    0.0494
    SETDIJ:  cpu time    0.0069: real time    0.0069
     EDDAV:  cpu time    9.6379: real time    9.6896
 BZINTS: Fermi energy:  0.560129;320.000000 electrons
         Band energy:***********;  BLOECHL correction:  0.000000
       DOS:  cpu time    0.0024: real time    0.0024
    CHARGE:  cpu time    0.4032: real time    0.4113
    MIXING:  cpu time    0.0014: real time    0.0014
    --------------------------------------------
      LOOP:  cpu time   10.0988: real time   10.1610

 eigenvalue-minimisations  :  8504
 total energy-change (2. order) :-0.9579407E-03  (-0.2028682E-03)
 number of electron     320.0000826 magnetization      -0.0000001
 augmentation part       64.4742081 magnetization       0.0000751

 Broyden mixing:
  rms(total) = 0.47461E-02    rms(broyden)= 0.47408E-02
  rms(prec ) = 0.54036E-02
  weight for this iteration     100.00

 eigenvalues of (default mixing * dielectric matrix)
  average eigenvalue GAMMA=   1.2206
  2.7116  2.3620  1.0041  1.0041  0.6638  0.6638  0.7053  0.6500

 Free energy of the ion-electron system (eV)
  ---------------------------------------------------
  alpha Z        PSCENC =      1278.33848294
  Ewald energy   TEWEN  =    -16011.11606870
  -Hartree energ DENC   =    -12698.85222687
  -exchange      EXHF   =         0.00000000
  -V(xc)+E(xc)   XCENC  =      1240.15372704
  PAW double counting   =     20557.11653845   -21183.27216255
  entropy T*S    EENTRO =         0.00000000
  eigenvalues    EBANDS =     -2261.09632595
  atomic energy  EATOM  =     28895.73697308
  Solvation  Ediel_sol  =         0.00000000
  ---------------------------------------------------
  free energy    TOTEN  =      -182.99106256 eV

  energy without entropy =     -182.99106256  energy(sigma->0) =     -182.99106256


--------------------------------------------------------------------------------------------------------




--------------------------------------- Iteration      1(  14)  ---------------------------------------


    POTLOK:  cpu time    0.0465: real time    0.0497
    SETDIJ:  cpu time    0.0069: real time    0.0069
     EDDAV:  cpu time   10.0040: real time   10.0113
 BZINTS: Fermi energy:  0.550672;320.000000 electrons
         Band energy:***********;  BLOECHL correction:  0.000000
       DOS:  cpu time    0.0024: real time    0.0024
    CHARGE:  cpu time    0.4157: real time    0.4157
    MIXING:  cpu time    0.0015: real time    0.0015
    --------------------------------------------
      LOOP:  cpu time   10.4771: real time   10.4876

 eigenvalue-minimisations  :  9048
 total energy-change (2. order) :-0.8761261E-04  (-0.1697159E-04)
 number of electron     320.0000826 magnetization      -0.0000000
 augmentation part       64.4735153 magnetization      -0.0000623

 Broyden mixing:
  rms(total) = 0.23615E-02    rms(broyden)= 0.23609E-02
  rms(prec ) = 0.27383E-02
  weight for this iteration     100.00

 eigenvalues of (default mixing * dielectric matrix)
  average eigenvalue GAMMA=   1.2140
  2.7760  2.4166  1.1142  1.1142  0.6653  0.6653  0.8400  0.6505  0.6841

 Free energy of the ion-electron system (eV)
  ---------------------------------------------------
  alpha Z        PSCENC =      1278.33848294
  Ewald energy   TEWEN  =    -16011.11606870
  -Hartree energ DENC   =    -12698.95867957
  -exchange      EXHF   =         0.00000000
  -V(xc)+E(xc)   XCENC  =      1240.15344370
  PAW double counting   =     20556.61556127   -21182.74787898
  entropy T*S    EENTRO =         0.00000000
  eigenvalues    EBANDS =     -2261.01298392
  atomic energy  EATOM  =     28895.73697308
  Solvation  Ediel_sol  =         0.00000000
  ---------------------------------------------------
  free energy    TOTEN  =      -182.99115017 eV

  energy without entropy =     -182.99115017  energy(sigma->0) =     -182.99115017


--------------------------------------------------------------------------------------------------------




--------------------------------------- Iteration      1(  15)  ---------------------------------------


    POTLOK:  cpu time    0.0467: real time    0.0489
    SETDIJ:  cpu time    0.0069: real time    0.0069
     EDDAV:  cpu time    9.2380: real time    9.3383
 BZINTS: Fermi energy:  0.540080;320.000000 electrons
         Band energy:***********;  BLOECHL correction:  0.000000
       DOS:  cpu time    0.0024: real time    0.0024
    CHARGE:  cpu time    0.3949: real time    0.3950
    MIXING:  cpu time    0.0023: real time    0.0023
    --------------------------------------------
      LOOP:  cpu time    9.6911: real time    9.7937

 eigenvalue-minimisations  :  8184
 total energy-change (2. order) :-0.2147942E-04  (-0.4326464E-05)
 number of electron     320.0000827 magnetization      -0.0000000
 augmentation part       64.4750715 magnetization       0.0000031

 Broyden mixing:
  rms(total) = 0.11902E-02    rms(broyden)= 0.11872E-02
  rms(prec ) = 0.14313E-02
  weight for this iteration     100.00

 eigenvalues of (default mixing * dielectric matrix)
  average eigenvalue GAMMA=   1.2210
  2.8742  2.3878  1.2928  1.2928  0.9842  0.6665  0.6665  0.6398  0.7029  0.7029

 Free energy of the ion-electron system (eV)
  ---------------------------------------------------
  alpha Z        PSCENC =      1278.33848294
  Ewald energy   TEWEN  =    -16011.11606870
  -Hartree energ DENC   =    -12698.88502721
  -exchange      EXHF   =         0.00000000
  -V(xc)+E(xc)   XCENC  =      1240.14999465
  PAW double counting   =     20556.30160983   -21182.41576906
  entropy T*S    EENTRO =         0.00000000
  eigenvalues    EBANDS =     -2261.10136718
  atomic energy  EATOM  =     28895.73697308
  Solvation  Ediel_sol  =         0.00000000
  ---------------------------------------------------
  free energy    TOTEN  =      -182.99117165 eV

  energy without entropy =     -182.99117165  energy(sigma->0) =     -182.99117165


--------------------------------------------------------------------------------------------------------




--------------------------------------- Iteration      1(  16)  ---------------------------------------


    POTLOK:  cpu time    0.0470: real time    0.0488
    SETDIJ:  cpu time    0.0070: real time    0.0070
     EDDAV:  cpu time   10.0072: real time   10.0766
 BZINTS: Fermi energy:  0.529915;320.000000 electrons
         Band energy:***********;  BLOECHL correction:  0.000000
       DOS:  cpu time    0.0025: real time    0.0025
    CHARGE:  cpu time    0.3746: real time    0.3746
    MIXING:  cpu time    0.0018: real time    0.0018
    --------------------------------------------
      LOOP:  cpu time   10.4401: real time   10.5113

 eigenvalue-minimisations  :  8736
 total energy-change (2. order) :-0.8118914E-05  (-0.1163068E-05)
 number of electron     320.0000827 magnetization      -0.0000000
 augmentation part       64.4757190 magnetization      -0.0000291

 Broyden mixing:
  rms(total) = 0.57158E-03    rms(broyden)= 0.57113E-03
  rms(prec ) = 0.70262E-03
  weight for this iteration     100.00

 eigenvalues of (default mixing * dielectric matrix)
  average eigenvalue GAMMA=   1.2283
  2.9717  2.3817  1.8472  1.0771  1.0771  0.6666  0.6666  0.7719  0.7719  0.6588
  0.6210

 Free energy of the ion-electron system (eV)
  ---------------------------------------------------
  alpha Z        PSCENC =      1278.33848294
  Ewald energy   TEWEN  =    -16011.11606870
  -Hartree energ DENC   =    -12698.93997450
  -exchange      EXHF   =         0.00000000
  -V(xc)+E(xc)   XCENC  =      1240.15686534
  PAW double counting   =     20556.34513105   -21182.45911261
  entropy T*S    EENTRO =         0.00000000
  eigenvalues    EBANDS =     -2261.05347637
  atomic energy  EATOM  =     28895.73697308
  Solvation  Ediel_sol  =         0.00000000
  ---------------------------------------------------
  free energy    TOTEN  =      -182.99117977 eV

  energy without entropy =     -182.99117977  energy(sigma->0) =     -182.99117977


--------------------------------------------------------------------------------------------------------




--------------------------------------- Iteration      1(  17)  ---------------------------------------


    POTLOK:  cpu time    0.0475: real time    0.0496
    SETDIJ:  cpu time    0.0069: real time    0.0069
     EDDAV:  cpu time   10.0784: real time   10.1325
 BZINTS: Fermi energy:  0.524468;320.000000 electrons
         Band energy:***********;  BLOECHL correction:  0.000000
       DOS:  cpu time    0.0023: real time    0.0023
    CHARGE:  cpu time    0.4107: real time    0.4213
    MIXING:  cpu time    0.0018: real time    0.0018
    --------------------------------------------
      LOOP:  cpu time   10.5477: real time   10.6145

 eigenvalue-minimisations  :  9376
 total energy-change (2. order) :-0.1755623E-05  (-0.4219787E-06)
 number of electron     320.0000827 magnetization      -0.0000000
 augmentation part       64.4753516 magnetization      -0.0000120

 Broyden mixing:
  rms(total) = 0.26071E-03    rms(broyden)= 0.26049E-03
  rms(prec ) = 0.34802E-03
  weight for this iteration     100.00

 eigenvalues of (default mixing * dielectric matrix)
  average eigenvalue GAMMA=   1.2169
  3.0164  2.4237  2.0004  1.1023  1.1023  0.9107  0.6669  0.6669  0.7362  0.7362
  0.6416  0.5999

 Free energy of the ion-electron system (eV)
  ---------------------------------------------------
  alpha Z        PSCENC =      1278.33848294
  Ewald energy   TEWEN  =    -16011.11606870
  -Hartree energ DENC   =    -12698.99490352
  -exchange      EXHF   =         0.00000000
  -V(xc)+E(xc)   XCENC  =      1240.16139294
  PAW double counting   =     20556.39097299   -21182.51019556
  entropy T*S    EENTRO =         0.00000000
  eigenvalues    EBANDS =     -2260.99783570
  atomic energy  EATOM  =     28895.73697308
  Solvation  Ediel_sol  =         0.00000000
  ---------------------------------------------------
  free energy    TOTEN  =      -182.99118153 eV

  energy without entropy =     -182.99118153  energy(sigma->0) =     -182.99118153


--------------------------------------------------------------------------------------------------------




--------------------------------------- Iteration      1(  18)  ---------------------------------------


    POTLOK:  cpu time    0.0469: real time    0.0487
    SETDIJ:  cpu time    0.0069: real time    0.0069
     EDDAV:  cpu time    8.1062: real time    8.1354
 BZINTS: Fermi energy:  0.524464;320.000000 electrons
         Band energy:***********;  BLOECHL correction:  0.000000
       DOS:  cpu time    0.0023: real time    0.0023
    CHARGE:  cpu time    0.3953: real time    0.3959
    MIXING:  cpu time    0.0020: real time    0.0020
    --------------------------------------------
      LOOP:  cpu time    8.5596: real time    8.5913

 eigenvalue-minimisations  :  6848
 total energy-change (2. order) :-0.2805682E-06  (-0.6098692E-07)
 number of electron     320.0000827 magnetization       0.0000000
 augmentation part       64.4752508 magnetization       0.0000082

 Broyden mixing:
  rms(total) = 0.12035E-03    rms(broyden)= 0.12018E-03
  rms(prec ) = 0.21145E-03
  weight for this iteration     100.00

 eigenvalues of (default mixing * dielectric matrix)
  average eigenvalue GAMMA=   1.2177
  3.0273  2.4662  2.0915  1.1488  1.1488  1.0424  0.6660  0.6660  0.8013  0.8013
  0.7398  0.6451  0.5853

 Free energy of the ion-electron system (eV)
  ---------------------------------------------------
  alpha Z        PSCENC =      1278.33848294
  Ewald energy   TEWEN  =    -16011.11606870
  -Hartree energ DENC   =    -12698.99827447
  -exchange      EXHF   =         0.00000000
  -V(xc)+E(xc)   XCENC  =      1240.16170947
  PAW double counting   =     20556.37233088   -21182.49293753
  entropy T*S    EENTRO =         0.00000000
  eigenvalues    EBANDS =     -2260.99339748
  atomic energy  EATOM  =     28895.73697308
  Solvation  Ediel_sol  =         0.00000000
  ---------------------------------------------------
  free energy    TOTEN  =      -182.99118181 eV

  energy without entropy =     -182.99118181  energy(sigma->0) =     -182.99118181


--------------------------------------------------------------------------------------------------------




--------------------------------------- Iteration      1(  19)  ---------------------------------------


    POTLOK:  cpu time    0.0470: real time    0.0488
    SETDIJ:  cpu time    0.0069: real time    0.0069
     EDDAV:  cpu time    6.5541: real time    6.6090
 BZINTS: Fermi energy:  0.524463;320.000000 electrons
         Band energy:***********;  BLOECHL correction:  0.000000
       DOS:  cpu time    0.0023: real time    0.0023
    --------------------------------------------
      LOOP:  cpu time    6.6102: real time    6.6669

 eigenvalue-minimisations  :  4888
 total energy-change (2. order) :-0.9251744E-07  (-0.1278248E-07)
 number of electron     320.0000827 magnetization       0.0000000
 augmentation part       64.4752508 magnetization       0.0000082

 Free energy of the ion-electron system (eV)
  ---------------------------------------------------
  alpha Z        PSCENC =      1278.33848294
  Ewald energy   TEWEN  =    -16011.11606870
  -Hartree energ DENC   =    -12698.99059443
  -exchange      EXHF   =         0.00000000
  -V(xc)+E(xc)   XCENC  =      1240.16139025
  PAW double counting   =     20556.35489694   -21182.47566083
  entropy T*S    EENTRO =         0.00000000
  eigenvalues    EBANDS =     -2261.00060116
  atomic energy  EATOM  =     28895.73697308
  Solvation  Ediel_sol  =         0.00000000
  ---------------------------------------------------
  free energy    TOTEN  =      -182.99118190 eV

  energy without entropy =     -182.99118190  energy(sigma->0) =     -182.99118190


--------------------------------------------------------------------------------------------------------




 average (electrostatic) potential at core
  the test charge radii are     0.7167  0.9791  1.1312
  (the norm of the test charge is              1.0000)
       1 -78.4153       2 -78.4129       3 -78.4129       4 -78.4153       5 -78.4153
       6 -78.4129       7 -78.4129       8 -78.4153       9 -78.4129      10 -78.4150
      11 -78.4150      12 -78.4129      13 -78.4153      14 -78.4129      15 -78.4129
      16 -78.4153      17 -78.4153      18 -78.4129      19 -78.4129      20 -78.4153
      21 -78.4129      22 -78.4150      23 -78.4150      24 -78.4129      25 -46.7716
      26 -46.8055      27 -46.8056      28 -46.7716      29 -46.7716      30 -46.8056
      31 -46.8055      32 -46.7716      33 -49.4748      34 -49.4746      35 -49.4746
      36 -49.4748      37 -49.4748      38 -49.4746      39 -49.4746      40 -49.4748
 
 
 
 E-fermi :   0.5245     XC(G=0):  -8.6946     alpha+bet : -7.8451


 spin component 1

 k-point     1 :       0.0000    0.0000    0.0000
  band No.  band energies     occupation 
      1     -22.3672      1.00000
      2     -22.2732      1.00000
      3     -22.2571      1.00000
      4     -22.1632      1.00000
      5     -22.0363      1.00000
      6     -21.9362      1.00000
      7     -21.9306      1.00000
      8     -21.9092      1.00000
      9     -21.9087      1.00000
     10     -21.8587      1.00000
     11     -21.8586      1.00000
     12     -21.8305      1.00000
     13     -21.8153      1.00000
     14     -21.8073      1.00000
     15     -21.8018      1.00000
     16     -21.7943      1.00000
     17     -21.7545      1.00000
     18     -21.7520      1.00000
     19     -21.7491      1.00000
     20     -21.7467      1.00000
     21     -21.7013      1.00000
     22     -21.7007      1.00000
     23     -21.6428      1.00000
     24     -21.6425      1.00000
     25     -19.7363      1.00000
     26     -19.7358      1.00000
     27     -19.7351      1.00000
     28     -19.7349      1.00000
     29     -19.7331      1.00000
     30     -19.7330      1.00000
     31     -19.7327      1.00000
     32     -19.7101      1.00000
     33      -7.0031      1.00000
     34      -7.0030      1.00000
     35      -6.9178      1.00000
     36      -6.8538      1.00000
     37      -6.8532      1.00000
     38      -6.8530      1.00000
     39      -6.7063      1.00000
     40      -6.7049      1.00000
     41      -6.7030      1.00000
     42      -6.6348      1.00000
     43      -6.6306      1.00000
     44      -6.6267      1.00000
     45      -6.5996      1.00000
     46      -6.5996      1.00000
     47      -6.5852      1.00000
     48      -6.5851      1.00000
     49      -6.5847      1.00000
     50      -6.5633      1.00000
     51      -6.5612      1.00000
     52      -6.5595      1.00000
     53      -6.4946      1.00000
     54      -6.4945      1.00000
     55      -6.4943      1.00000
     56      -6.4316      1.00000
     57      -5.7162      1.00000
     58      -5.5765      1.00000
     59      -5.5223      1.00000
     60      -5.3983      1.00000
     61      -5.1605      1.00000
     62      -5.0744      1.00000
     63      -5.0062      1.00000
     64      -4.8094      1.00000
     65      -4.7839      1.00000
     66      -4.7710      1.00000
     67      -4.7000      1.00000
     68      -4.6736      1.00000
     69      -4.6143      1.00000
     70      -4.5870      1.00000
     71      -4.5558      1.00000
     72      -4.5430      1.00000
     73      -4.5198      1.00000
     74      -4.5159      1.00000
     75      -4.4938      1.00000
     76      -4.4035      1.00000
     77      -4.1937      1.00000
     78      -4.1537      1.00000
     79      -4.0892      1.00000
     80      -4.0293      1.00000
     81      -4.0270      1.00000
     82      -4.0142      1.00000
     83      -3.9650      1.00000
     84      -3.9577      1.00000
     85      -3.9402      1.00000
     86      -3.9295      1.00000
     87      -3.9040      1.00000
     88      -3.8203      1.00000
     89      -3.7633      1.00000
     90      -3.7528      1.00000
     91      -3.7412      1.00000
     92      -3.7330      1.00000
     93      -3.7168      1.00000
     94      -3.7157      1.00000
     95      -3.7003      1.00000
     96      -3.6486      1.00000
     97      -3.6360      1.00000
     98      -3.5980      1.00000
     99      -3.5975      1.00000
    100      -3.5557      1.00000
    101      -3.5022      1.00000
    102      -3.4931      1.00000
    103      -3.4715      1.00000
    104      -3.3557      1.00000
    105      -3.3477      1.00000
    106      -3.2711      1.00000
    107      -3.1579      1.00000
    108      -3.1430      1.00000
    109      -3.0929      1.00000
    110      -3.0104      1.00000
    111      -2.9904      1.00000
    112      -2.9738      1.00000
    113      -2.9635      1.00000
    114      -2.9499      1.00000
    115      -2.8497      1.00000
    116      -2.8491      1.00000
    117      -2.8208      1.00000
    118      -2.8097      1.00000
    119      -2.7396      1.00000
    120      -2.6540      1.00000
    121      -2.6340      1.00000
    122      -2.6086      1.00000
    123      -2.5746      1.00000
    124      -2.5667      1.00000
    125      -2.5100      1.00000
    126      -2.4639      1.00000
    127      -2.4469      1.00000
    128      -2.3965      1.00000
    129      -1.5647      1.00000
    130      -1.3310      1.00000
    131      -1.3192      1.00000
    132      -1.2907      1.00000
    133      -1.2906      1.00000
    134      -1.0491      1.00000
    135      -1.0424      1.00000
    136      -1.0389      1.00000
    137      -1.0324      1.00000
    138      -0.8354      1.00000
    139      -0.8348      1.00000
    140      -0.6879      1.00000
    141      -0.5811      1.00000
    142      -0.5614      1.00000
    143      -0.5457      1.00000
    144      -0.5397      1.00000
    145      -0.5143      1.00000
    146      -0.4157      1.00000
    147      -0.4155      1.00000
    148      -0.3861      1.00000
    149      -0.3812      1.00000
    150      -0.0727      1.00000
    151      -0.0726      1.00000
    152       0.1050      1.00000
    153       0.1069      1.00000
    154       0.1485      1.00000
    155       0.1507      1.00000
    156       0.1623      1.00000
    157       0.1635      1.00000
    158       0.2514      1.00000
    159       0.2515      1.00000
    160       0.4940      1.00000
    161       1.7900      0.00000
    162       1.8127      0.00000
    163       1.8174      0.00000
    164       1.8477      0.00000
    165       1.8659      0.00000
    166       1.8662      0.00000
    167       1.8723      0.00000
    168       1.8786      0.00000
    169       3.8873      0.00000
    170       5.4116      0.00000
    171       5.4728      0.00000
    172       5.5469      0.00000
    173       5.8051      0.00000
    174       5.8107      0.00000
    175       5.8164      0.00000
    176       6.1460      0.00000
    177       6.4627      0.00000
    178       6.4718      0.00000
    179       6.4811      0.00000
    180       6.9708      0.00000
    181       6.9746      0.00000
    182       6.9782      0.00000
    183       7.0381      0.00000
    184       7.0383      0.00000
    185       7.1495      0.00000
    186       7.1496      0.00000
    187       7.5112      0.00000
    188       7.5115      0.00000
    189       7.5875      0.00000
    190       7.5986      0.00000
    191       7.6149      0.00000
    192       7.6921      0.00000

 k-point     2 :       0.5000    0.0000    0.0000
  band No.  band energies     occupation 
      1     -22.3663      1.00000
      2     -22.2664      1.00000
      3     -22.2650      1.00000
      4     -22.1645      1.00000
      5     -22.0363      1.00000
      6     -21.9337      1.00000
      7     -21.9334      1.00000
      8     -21.9085      1.00000
      9     -21.9072      1.00000
     10     -21.8591      1.00000
     11     -21.8586      1.00000
     12     -21.8304      1.00000
     13     -21.8058      1.00000
     14     -21.8045      1.00000
     15     -21.8045      1.00000
     16     -21.8039      1.00000
     17     -21.7505      1.00000
     18     -21.7504      1.00000
     19     -21.7504      1.00000
     20     -21.7503      1.00000
     21     -21.7019      1.00000
     22     -21.7011      1.00000
     23     -21.6428      1.00000
     24     -21.6425      1.00000
     25     -19.7376      1.00000
     26     -19.7370      1.00000
     27     -19.7363      1.00000
     28     -19.7360      1.00000
     29     -19.7316      1.00000
     30     -19.7316      1.00000
     31     -19.7206      1.00000
     32     -19.7203      1.00000
     33      -6.9361      1.00000
     34      -6.9309      1.00000
     35      -6.8401      1.00000
     36      -6.8334      1.00000
     37      -6.8325      1.00000
     38      -6.8269      1.00000
     39      -6.8221      1.00000
     40      -6.8191      1.00000
     41      -6.7170      1.00000
     42      -6.7165      1.00000
     43      -6.6853      1.00000
     44      -6.6835      1.00000
     45      -6.5834      1.00000
     46      -6.5789      1.00000
     47      -6.5776      1.00000
     48      -6.5769      1.00000
     49      -6.5711      1.00000
     50      -6.5691      1.00000
[...]
   26        0.296   0.368   8.172   8.836
   27        0.296   0.368   8.172   8.836
   28        0.296   0.367   8.176   8.839
   29        0.296   0.367   8.176   8.839
   30        0.296   0.368   8.172   8.837
   31        0.296   0.368   8.172   8.837
   32        0.296   0.367   8.176   8.839
   33        1.838   4.719   0.017   6.574
   34        1.838   4.719   0.017   6.574
   35        1.838   4.719   0.017   6.574
   36        1.838   4.719   0.017   6.574
   37        1.838   4.719   0.017   6.574
   38        1.838   4.719   0.017   6.574
   39        1.838   4.719   0.017   6.574
   40        1.838   4.719   0.017   6.574
--------------------------------------------------
tot         58.729 144.585  65.534 268.847
 


 magnetization (x)
 
# of ion       s       p       d       tot
------------------------------------------
    1       -0.004  -0.101   0.000  -0.105
    2        0.000   0.000   0.000   0.000
    3       -0.000  -0.000   0.000  -0.000
    4        0.004   0.101   0.000   0.105
    5        0.004   0.101   0.000   0.105
    6        0.000   0.000   0.000   0.000
    7       -0.000  -0.000   0.000  -0.000
    8       -0.004  -0.101   0.000  -0.105
    9        0.000  -0.000   0.000  -0.000
   10        0.004   0.101   0.000   0.105
   11       -0.004  -0.101   0.000  -0.105
   12       -0.000   0.000   0.000   0.000
   13        0.004   0.101   0.000   0.105
   14       -0.000  -0.000   0.000  -0.000
   15        0.000   0.000   0.000   0.000
   16       -0.004  -0.101   0.000  -0.105
   17       -0.004  -0.101   0.000  -0.105
   18       -0.000  -0.000   0.000  -0.000
   19        0.000   0.000   0.000   0.000
   20        0.004   0.101   0.000   0.105
   21       -0.000   0.000   0.000   0.000
   22       -0.004  -0.101   0.000  -0.105
   23        0.004   0.101   0.000   0.105
   24        0.000  -0.000   0.000  -0.000
   25        0.000  -0.001   1.644   1.642
   26       -0.002  -0.002  -1.647  -1.651
   27        0.002   0.002   1.647   1.651
   28       -0.000   0.001  -1.644  -1.642
   29        0.000  -0.001   1.644   1.642
   30        0.002   0.002   1.646   1.651
   31       -0.002  -0.002  -1.646  -1.651
   32       -0.000   0.001  -1.644  -1.642
   33       -0.000   0.000  -0.000   0.000
   34        0.000   0.000   0.000   0.001
   35       -0.000  -0.000  -0.000  -0.001
   36       -0.000  -0.000   0.000  -0.000
   37       -0.000  -0.000   0.000  -0.000
   38       -0.000  -0.000  -0.000  -0.001
   39        0.000   0.000   0.000   0.001
   40       -0.000   0.000  -0.000   0.000
--------------------------------------------------
tot         -0.000   0.000  -0.000  -0.000
 
    CHARGE:  cpu time    0.3789: real time    0.3791
    FORLOC:  cpu time    0.0050: real time    0.0050
    FORNL :  cpu time    1.5014: real time    1.5209
    STRESS:  cpu time    4.6807: real time    4.7036
    FORCOR:  cpu time    0.0443: real time    0.0443
    FORHAR:  cpu time    0.0095: real time    0.0095
    MIXING:  cpu time    0.0020: real time    0.0020
    OFIELD:  cpu time    0.0001: real time    0.0001

  FORCE on cell =-STRESS in cart. coord.  units (eV):
  Direction    XX          YY          ZZ          XY          YZ          ZX
  --------------------------------------------------------------------------------------
  Alpha Z  1278.33848  1278.33848  1278.33848
  Ewald   -7609.75632 -7610.00282  -791.44196    -0.20307    -0.00000     0.00000
  Hartree  2322.02387  2321.81749  8055.15231    -0.18065    -0.00069    -0.00040
  E(xc)   -1677.17192 -1677.17305 -1675.10800    -0.00116     0.00005     0.00003
  Local     556.84789   557.28047-11901.46651     0.38079     0.00125     0.00072
  n-local -1126.76036 -1126.78038 -1112.89761     0.00617     0.00043     0.00038
  augment   750.30817   750.31276   727.73354     0.00183    -0.00027    -0.00016
  Kinetic  5506.24514  5506.42808  5419.57981    -0.05135    -0.00021    -0.00019
  Fock        0.00000     0.00000     0.00000     0.00000     0.00000     0.00000
  -------------------------------------------------------------------------------------
  Total       0.15026     0.14571    -0.10993    -0.00394     0.00058     0.00033
  in kB       0.31992     0.31023    -0.23406    -0.00840     0.00123     0.00071
  external pressure =        0.13 kB  Pullay stress =        0.00 kB


 VOLUME and BASIS-vectors are now :
 -----------------------------------------------------------------------------
  energy-cutoff  :      520.00
  volume of cell :      752.52
      direct lattice vectors                 reciprocal lattice vectors
    12.775245568  0.000000000  0.000000000     0.078276382  0.045192789  0.000000000
    -6.387622784 11.063711963  0.000000000     0.000000000  0.090385578  0.000000000
     0.000000000  0.000000000  5.324128930     0.000000000  0.000000000  0.187824152

  length of vectors
    12.775245568 12.775267012  5.324128930     0.090385730  0.090385578  0.187824152


 FORCES acting on ions
    electron-ion (+dipol)            ewald-force                    non-local-force                 convergence-correction
 -----------------------------------------------------------------------------------------------
   0.134E-02 -.392E+03 -.374E-04   -.107E-02 0.408E+03 -.641E-08   0.974E-03 -.163E+02 0.733E-04   -.110E-02 0.879E-03 -.115E-05
   -.132E-03 -.392E+03 0.486E-03   -.107E-02 0.408E+03 -.641E-08   0.442E-04 -.164E+02 -.433E-03   0.108E-02 -.139E-03 0.467E-04
   -.119E-03 -.392E+03 0.523E-03   -.107E-02 0.408E+03 -.641E-08   0.525E-04 -.164E+02 -.404E-03   0.106E-02 -.110E-03 -.450E-04
   0.129E-02 -.392E+03 -.388E-04   -.107E-02 0.408E+03 -.641E-08   0.954E-03 -.163E+02 0.730E-04   -.105E-02 0.884E-03 0.567E-06
   0.339E+03 0.196E+03 0.386E-04   -.354E+03 -.204E+03 -.641E-08   0.142E+02 0.817E+01 -.730E-04   -.129E-02 0.469E-03 -.567E-06
   0.339E+03 0.196E+03 -.486E-03   -.354E+03 -.204E+03 -.642E-08   0.142E+02 0.818E+01 0.433E-03   0.659E-03 -.863E-03 -.467E-04
   0.339E+03 0.196E+03 -.523E-03   -.354E+03 -.204E+03 -.642E-08   0.142E+02 0.818E+01 0.404E-03   0.624E-03 -.861E-03 0.450E-04
   0.339E+03 0.196E+03 0.372E-04   -.354E+03 -.204E+03 -.642E-08   0.142E+02 0.817E+01 -.733E-04   -.131E-02 0.510E-03 0.115E-05
   -.339E+03 0.196E+03 0.189E-04   0.354E+03 -.204E+03 -.641E-08   -.142E+02 0.818E+01 0.122E-04   -.149E-02 0.836E-03 -.448E-04
   -.339E+03 0.196E+03 -.883E-07   0.354E+03 -.204E+03 -.641E-08   -.142E+02 0.817E+01 0.000E+00   0.212E-02 -.122E-02 0.174E-10
   -.339E+03 0.196E+03 -.883E-07   0.354E+03 -.204E+03 -.641E-08   -.142E+02 0.817E+01 0.000E+00   0.216E-02 -.125E-02 0.164E-11
   -.339E+03 0.196E+03 -.191E-04   0.354E+03 -.204E+03 -.641E-08   -.142E+02 0.818E+01 -.122E-04   -.147E-02 0.869E-03 0.448E-04
   -.129E-02 0.392E+03 0.386E-04   0.107E-02 -.408E+03 -.641E-08   -.954E-03 0.163E+02 -.730E-04   0.105E-02 -.884E-03 -.567E-06
   0.119E-03 0.392E+03 -.523E-03   0.107E-02 -.408E+03 -.641E-08   -.525E-04 0.164E+02 0.404E-03   -.106E-02 0.110E-03 0.450E-04
   0.132E-03 0.392E+03 -.486E-03   0.107E-02 -.408E+03 -.641E-08   -.442E-04 0.164E+02 0.433E-03   -.108E-02 0.139E-03 -.467E-04
   -.134E-02 0.392E+03 0.372E-04   0.107E-02 -.408E+03 -.641E-08   -.974E-03 0.163E+02 -.733E-04   0.110E-02 -.879E-03 0.115E-05
   -.339E+03 -.196E+03 -.374E-04   0.354E+03 0.204E+03 -.642E-08   -.142E+02 -.817E+01 0.733E-04   0.131E-02 -.510E-03 -.115E-05
   -.339E+03 -.196E+03 0.523E-03   0.354E+03 0.204E+03 -.642E-08   -.142E+02 -.818E+01 -.404E-03   -.624E-03 0.861E-03 -.450E-04
   -.339E+03 -.196E+03 0.486E-03   0.354E+03 0.204E+03 -.642E-08   -.142E+02 -.818E+01 -.433E-03   -.659E-03 0.863E-03 0.467E-04
   -.339E+03 -.196E+03 -.388E-04   0.354E+03 0.204E+03 -.642E-08   -.142E+02 -.817E+01 0.730E-04   0.129E-02 -.469E-03 0.567E-06
   0.339E+03 -.196E+03 0.189E-04   -.354E+03 0.204E+03 -.641E-08   0.142E+02 -.818E+01 0.122E-04   0.147E-02 -.869E-03 -.448E-04
   0.339E+03 -.196E+03 -.899E-07   -.354E+03 0.204E+03 -.641E-08   0.142E+02 -.817E+01 0.000E+00   -.216E-02 0.125E-02 -.496E-11
   0.339E+03 -.196E+03 -.899E-07   -.354E+03 0.204E+03 -.641E-08   0.142E+02 -.817E+01 0.000E+00   -.212E-02 0.122E-02 -.208E-10
   0.339E+03 -.196E+03 -.191E-04   -.354E+03 0.204E+03 -.641E-08   0.142E+02 -.818E+01 -.122E-04   0.149E-02 -.836E-03 0.448E-04
   -.461E-10 0.972E-09 -.322E-08   0.265E-09 -.724E-08 0.206E-07   0.414E-24 0.000E+00 0.000E+00   -.724E-11 0.406E-09 -.104E-10
   -.452E-10 0.972E-09 -.322E-08   0.265E-09 -.724E-08 0.206E-07   0.000E+00 0.000E+00 0.000E+00   -.711E-11 0.406E-09 -.104E-10
   -.159E-08 0.665E-08 -.224E-08   0.874E-08 0.171E-08 0.100E-07   -.207E-24 0.000E+00 0.000E+00   -.113E-10 -.515E-09 0.138E-10
   -.158E-08 0.666E-08 -.221E-08   0.874E-08 0.171E-08 0.100E-07   -.103E-24 0.000E+00 0.000E+00   -.118E-10 -.515E-09 0.138E-10
   -.465E-10 0.972E-09 -.368E-08   0.267E-09 -.724E-08 0.181E-07   0.000E+00 0.000E+00 0.000E+00   -.734E-11 0.406E-09 0.114E-10
   -.457E-10 0.972E-09 -.368E-08   0.267E-09 -.724E-08 0.181E-07   0.000E+00 0.000E+00 0.000E+00   -.713E-11 0.406E-09 0.113E-10
   -.159E-08 0.665E-08 -.470E-08   0.874E-08 0.171E-08 0.287E-07   0.000E+00 0.000E+00 0.000E+00   -.114E-10 -.515E-09 -.128E-10
   -.159E-08 0.666E-08 -.468E-08   0.874E-08 0.171E-08 0.287E-07   -.827E-24 0.000E+00 0.000E+00   -.119E-10 -.515E-09 -.129E-10
   -.446E-02 0.360E-02 -.568E-05   0.754E-02 -.538E-02 -.113E-09   0.116E-03 -.607E-04 0.920E-06   -.241E-02 0.135E-02 0.499E-05
   -.109E-01 0.728E-02 -.277E-07   0.754E-02 -.538E-02 -.113E-09   0.138E-03 -.797E-04 -.339E-20   0.241E-02 -.139E-02 -.499E-11
   -.109E-01 0.726E-02 -.276E-07   0.754E-02 -.538E-02 -.113E-09   0.142E-03 -.821E-04 0.000E+00   0.237E-02 -.137E-02 -.160E-10
   -.449E-02 0.354E-02 0.562E-05   0.754E-02 -.538E-02 -.113E-09   0.111E-03 -.705E-04 -.920E-06   -.237E-02 0.141E-02 -.499E-05
   0.449E-02 -.354E-02 -.568E-05   -.754E-02 0.538E-02 -.113E-09   -.111E-03 0.705E-04 0.920E-06   0.237E-02 -.141E-02 0.499E-05
   0.109E-01 -.726E-02 -.275E-07   -.754E-02 0.538E-02 -.113E-09   -.142E-03 0.821E-04 0.000E+00   -.237E-02 0.137E-02 0.196E-10
   0.109E-01 -.728E-02 -.275E-07   -.754E-02 0.538E-02 -.113E-09   -.138E-03 0.797E-04 0.339E-20   -.241E-02 0.139E-02 0.856E-11
   0.446E-02 -.360E-02 0.563E-05   -.754E-02 0.538E-02 -.113E-09   -.116E-03 0.607E-04 -.920E-06   0.241E-02 -.135E-02 -.499E-05
 -----------------------------------------------------------------------------------------------
   0.289E-07 0.200E-05 -.239E-05   0.541E-12 0.107E-12 -.791E-14   -.533E-14 -.124E-13 0.678E-20   -.110E-09 -.620E-09 -.214E-10
 
 
 POSITION                                       TOTAL-FORCE (eV/Angst)
 -----------------------------------------------------------------------------------
      3.19377      7.08259      1.33103         0.000187      0.001776      0.000035
     -3.19385      7.08259      1.33103        -0.000043      0.012688      0.000100
      6.38758      1.55073      1.33103        -0.000041      0.012684      0.000074
     -0.00004      1.55073      1.33103         0.000161      0.001785      0.000035
      5.04463     10.28838      1.33103        -0.001465     -0.001032     -0.000035
     -1.34299     10.28838      1.33103        -0.011009     -0.006307     -0.000100
      8.23844      4.75653      1.33103        -0.011005     -0.006306     -0.000074
      1.85082      4.75653      1.33103        -0.001444     -0.001050     -0.000035
      1.34300     10.28833      1.33103         0.011018     -0.006360     -0.000014
     -5.04462     10.28833      1.33103         0.001174     -0.000678     -0.000000
      4.53681      4.75647      1.33103         0.001134     -0.000655     -0.000000
     -1.85081      4.75647      1.33103         0.011017     -0.006362      0.000014
      6.38767      9.51298      3.99310        -0.000161     -0.001785     -0.000035
      0.00004      9.51298      3.99310         0.000041     -0.012684     -0.000074
      9.58148      3.98112      3.99310         0.000043     -0.012688     -0.000100
      3.19385      3.98112      3.99310        -0.000187     -0.001776     -0.000035
      4.53680      6.30718      3.99310         0.001444      0.001050      0.000035
     -1.85082      6.30718      3.99310         0.011005      0.006306      0.000074
      7.73061      0.77533      3.99310         0.011009      0.006307      0.000100
      1.34299      0.77533      3.99310         0.001465      0.001032      0.000035
      8.23843      6.30724      3.99310        -0.011017      0.006362     -0.000014
      1.85081      6.30724      3.99310        -0.001134      0.000655     -0.000000
     11.43224      0.77538      3.99310        -0.001174      0.000678     -0.000000
      5.04462      0.77538      3.99310        -0.011018      0.006360      0.000014
      0.00000      0.00000      0.00000         0.000000     -0.000000     -0.000000
      6.38762      0.00000      0.00000         0.000000     -0.000000     -0.000000
      9.58143      5.53186      0.00000         0.000000     -0.000000     -0.000000
      3.19381      5.53186      0.00000         0.000000     -0.000000     -0.000000
      0.00000      0.00000      2.66206         0.000000     -0.000000     -0.000000
      6.38762      0.00000      2.66206         0.000000     -0.000000     -0.000000
      9.58143      5.53186      2.66206         0.000000     -0.000000     -0.000000
      3.19381      5.53186      2.66206         0.000000     -0.000000     -0.000000
      3.19382      9.21975      3.99310         0.000808     -0.000465      0.000000
     -3.19380      9.21975      3.99310        -0.000799      0.000462     -0.000000
      6.38763      3.68790      3.99310        -0.000799      0.000461     -0.000000
      0.00001      3.68790      3.99310         0.000807     -0.000467     -0.000000
      6.38761      7.37581      1.33103        -0.000807      0.000467      0.000000
     -0.00001      7.37581      1.33103         0.000799     -0.000461     -0.000000
      9.58143      1.84396      1.33103         0.000799     -0.000462     -0.000000
      3.19380      1.84396      1.33103        -0.000808      0.000465     -0.000000
 -----------------------------------------------------------------------------------
    total drift:                                0.000000      0.000002     -0.000002


--------------------------------------------------------------------------------------------------------



  FREE ENERGIE OF THE ION-ELECTRON SYSTEM (eV)
  ---------------------------------------------------
  free  energy   TOTEN  =      -182.99118190 eV

  energy  without entropy=     -182.99118190  energy(sigma->0) =     -182.99118190
 


--------------------------------------------------------------------------------------------------------


    POTLOK:  cpu time    0.0552: real time    0.0552


--------------------------------------------------------------------------------------------------------


     LOOP+:  cpu time  191.5546: real time  192.6862
    4ORBIT:  cpu time    0.0000: real time    0.0000
 


 total charge     
 
# of ion       s       p       d       tot
------------------------------------------
    1        1.736   4.328   0.000   6.064
    2        1.736   4.329   0.000   6.065
    3        1.736   4.329   0.000   6.065
    4        1.736   4.328   0.000   6.064
    5        1.736   4.329   0.000   6.065
    6        1.736   4.329   0.000   6.065
    7        1.736   4.329   0.000   6.065
    8        1.736   4.329   0.000   6.065
    9        1.736   4.329   0.000   6.065
   10        1.736   4.329   0.000   6.064
   11        1.736   4.329   0.000   6.064
   12        1.736   4.329   0.000   6.065
   13        1.736   4.328   0.000   6.064
   14        1.736   4.329   0.000   6.065
   15        1.736   4.329   0.000   6.065
   16        1.736   4.328   0.000   6.064
   17        1.736   4.329   0.000   6.065
   18        1.736   4.329   0.000   6.065
   19        1.736   4.329   0.000   6.065
   20        1.736   4.329   0.000   6.065
   21        1.736   4.329   0.000   6.065
   22        1.736   4.329   0.000   6.064
   23        1.736   4.329   0.000   6.064
   24        1.736   4.329   0.000   6.065
   25        0.296   0.367   8.176   8.839
   26        0.296   0.368   8.172   8.836
   27        0.296   0.368   8.172   8.836
   28        0.296   0.367   8.176   8.839
   29        0.296   0.367   8.176   8.839
   30        0.296   0.368   8.172   8.837
   31        0.296   0.368   8.172   8.837
   32        0.296   0.367   8.176   8.839
   33        1.838   4.719   0.017   6.574
   34        1.838   4.719   0.017   6.574
   35        1.838   4.719   0.017   6.574
   36        1.838   4.719   0.017   6.574
   37        1.838   4.719   0.017   6.574
   38        1.838   4.719   0.017   6.574
   39        1.838   4.719   0.017   6.574
   40        1.838   4.719   0.017   6.574
--------------------------------------------------
tot         58.729 144.585  65.534 268.847
 


 magnetization (x)
 
# of ion       s       p       d       tot
------------------------------------------
    1       -0.004  -0.101   0.000  -0.105
    2        0.000   0.000   0.000   0.000
    3       -0.000  -0.000   0.000  -0.000
    4        0.004   0.101   0.000   0.105
    5        0.004   0.101   0.000   0.105
    6        0.000   0.000   0.000   0.000
    7       -0.000  -0.000   0.000  -0.000
    8       -0.004  -0.101   0.000  -0.105
    9        0.000  -0.000   0.000  -0.000
   10        0.004   0.101   0.000   0.105
   11       -0.004  -0.101   0.000  -0.105
   12       -0.000   0.000   0.000   0.000
   13        0.004   0.101   0.000   0.105
   14       -0.000  -0.000   0.000  -0.000
   15        0.000   0.000   0.000   0.000
   16       -0.004  -0.101   0.000  -0.105
   17       -0.004  -0.101   0.000  -0.105
   18       -0.000  -0.000   0.000  -0.000
   19        0.000   0.000   0.000   0.000
   20        0.004   0.101   0.000   0.105
   21       -0.000   0.000   0.000   0.000
   22       -0.004  -0.101   0.000  -0.105
   23        0.004   0.101   0.000   0.105
   24        0.000  -0.000   0.000  -0.000
   25        0.000  -0.001   1.644   1.642
   26       -0.002  -0.002  -1.647  -1.651
   27        0.002   0.002   1.647   1.651
   28       -0.000   0.001  -1.644  -1.642
   29        0.000  -0.001   1.644   1.642
   30        0.002   0.002   1.646   1.651
   31       -0.002  -0.002  -1.646  -1.651
   32       -0.000   0.001  -1.644  -1.642
   33       -0.000   0.000  -0.000   0.000
   34        0.000   0.000   0.000   0.001
   35       -0.000  -0.000  -0.000  -0.001
   36       -0.000  -0.000   0.000  -0.000
   37       -0.000  -0.000   0.000  -0.000
   38       -0.000  -0.000  -0.000  -0.001
   39        0.000   0.000   0.000   0.001
   40       -0.000   0.000  -0.000   0.000
--------------------------------------------------
tot         -0.000   0.000  -0.000  -0.000
 
 BZINTS: Fermi energy:  0.524463;320.000000 electrons
         Band energy:***********;  BLOECHL correction:  0.000000

 total amount of memory used by VASP MPI-rank0    66568. kBytes
=======================================================================

   base      :      30000. kBytes
   nonlr-proj:       7318. kBytes
   fftplans  :       1395. kBytes
   grid      :       3519. kBytes
   one-center:         62. kBytes
   wavefun   :      24274. kBytes
 
  
  
 General timing and accounting informations for this job:
 ========================================================
  
                  Total CPU time used (sec):      201.698
                            User time (sec):      197.693
                          System time (sec):        4.005
                         Elapsed time (sec):      204.711
  
                   Maximum memory used (kb):      140584.
                   Average memory used (kb):           0.
  
                          Minor page faults:        54098
                          Major page faults:           19
                 Voluntary context switches:         1738
