 vasp.5.4.4.18Apr17-6-g9f103f2a35 (build Dec 20 2018 12:05:58) complex          
  
 executed on             LinuxIFC date 2019.06.21  01:10:45
 running on   32 total cores
 distrk:  each k-point on    8 cores,    4 groups
 distr:  one band on NCORES_PER_BAND=   4 cores,    2 groups


--------------------------------------------------------------------------------------------------------


 INCAR:
 POTCAR:    PAW_PBE Al 04Jan2001                  
 POTCAR:    PAW_PBE Mn 06Sep2000                  

 ----------------------------------------------------------------------------- 
|                                                                             |
|           W    W    AA    RRRRR   N    N  II  N    N   GGGG   !!!           |
|           W    W   A  A   R    R  NN   N  II  NN   N  G    G  !!!           |
|           W    W  A    A  R    R  N N  N  II  N N  N  G       !!!           |
|           W WW W  AAAAAA  RRRRR   N  N N  II  N  N N  G  GGG   !            |
|           WW  WW  A    A  R   R   N   NN  II  N   NN  G    G                |
|           W    W  A    A  R    R  N    N  II  N    N   GGGG   !!!           |
|                                                                             |
|      You have enabled k-point parallelism (KPAR>1).                         |
|      This developmental code was originally  written by Paul Kent at ORNL,  |
|      and carefully double checked in Vienna.                                |
|      GW as well as linear response parallelism added by Martijn Marsman     |
|      and Georg Kresse.                                                      |
|      Carefully verify results versus KPAR=1.                                |
|      Report problems to Paul Kent and Vienna.                               |
|                                                                             |
 ----------------------------------------------------------------------------- 

 POTCAR:    PAW_PBE Al 04Jan2001                  
   VRHFIN =Al: s2p1                                                             
   LEXCH  = PE                                                                  
   EATOM  =    53.5387 eV,    3.9350 Ry                                         
                                                                                
   TITEL  = PAW_PBE Al 04Jan2001                                                
   LULTRA =        F    use ultrasoft PP ?                                      
   IUNSCR =        1    unscreen: 0-lin 1-nonlin 2-no                           
   RPACOR =    1.500    partial core radius                                     
   POMASS =   26.981; ZVAL   =    3.000    mass and valenz                      
   RCORE  =    1.900    outmost cutoff radius                                   
   RWIGS  =    2.650; RWIGS  =    1.402    wigner-seitz radius (au A)           
   ENMAX  =  240.300; ENMIN  =  180.225 eV                                      
   ICORE  =        2    local potential                                         
   LCOR   =        T    correct aug charges                                     
   LPAW   =        T    paw PP                                                  
   EAUG   =  291.052                                                            
   DEXC   =    0.000                                                            
   RMAX   =    1.939    core radius for proj-oper                               
   RAUG   =    1.300    factor for augmentation sphere                          
   RDEP   =    1.966    radius for radial grids                                 
   RDEPT  =    1.856    core radius for aug-charge                              
                                                                                
   Atomic configuration                                                         
    6 entries                                                                   
     n  l   j            E        occ.                                          
     1  0  0.50     -1511.1048   2.0000                                         
     2  0  0.50      -108.1629   2.0000                                         
     2  1  1.50       -69.6402   6.0000                                         
     3  0  0.50        -7.7528   2.0000                                         
     3  1  1.50        -2.7121   1.0000                                         
     3  2  2.50        -2.7212   0.0000                                         
   Description                                                                  
     l       E           TYP  RCUT    TYP  RCUT                                 
     0     -7.7528455     23  1.900                                             
     0     -3.3096929     23  1.900                                             
     1     -2.7120682     23  1.900                                             
     1     13.6058260     23  1.900                                             
     2     -2.7211652      7  1.900                                             
  local pseudopotential read in
  partial core-charges read in
  partial kinetic energy density read in
  atomic valenz-charges read in
  non local Contribution for L=           0  read in
    real space projection operators read in
  non local Contribution for L=           0  read in
    real space projection operators read in
  non local Contribution for L=           1  read in
    real space projection operators read in
  non local Contribution for L=           1  read in
    real space projection operators read in
    PAW grid and wavefunctions read in
 
   number of l-projection  operators is LMAX  =           4
   number of lm-projection operators is LMMAX =           8
 
 POTCAR:    PAW_PBE Mn 06Sep2000                  
   VRHFIN =Mn: d6 s1                                                            
   LEXCH  = PE                                                                  
   EATOM  =   416.7541 eV,   30.6306 Ry                                         
                                                                                
   TITEL  = PAW_PBE Mn 06Sep2000                                                
   LULTRA =        F    use ultrasoft PP ?                                      
   IUNSCR =        1    unscreen: 0-lin 1-nonlin 2-no                           
   RPACOR =    2.000    partial core radius                                     
   POMASS =   54.938; ZVAL   =    7.000    mass and valenz                      
   RCORE  =    2.300    outmost cutoff radius                                   
   RWIGS  =    2.500; RWIGS  =    1.323    wigner-seitz radius (au A)           
   ENMAX  =  269.864; ENMIN  =  202.398 eV                                      
   RCLOC  =    1.725    cutoff for local pot                                    
   LCOR   =        T    correct aug charges                                     
   LPAW   =        T    paw PP                                                  
   EAUG   =  500.711                                                            
   DEXC   =    0.000                                                            
   RMAX   =    2.343    core radius for proj-oper                               
   RAUG   =    1.300    factor for augmentation sphere                          
   RDEP   =    2.338    radius for radial grids                                 
   RDEPT  =    1.911    core radius for aug-charge                              
                                                                                
   Atomic configuration                                                         
    9 entries                                                                   
     n  l   j            E        occ.                                          
     1  0  0.50     -6424.8288   2.0000                                         
     2  0  0.50      -739.1154   2.0000                                         
     2  1  1.50      -625.3949   6.0000                                         
     3  0  0.50       -81.6100   2.0000                                         
     3  1  1.50       -50.4667   6.0000                                         
     3  2  2.50        -3.3745   6.0000                                         
     4  0  0.50        -4.1331   1.0000                                         
     4  1  0.50        -4.0817   0.0000                                         
     4  3  2.50        -1.3606   0.0000                                         
   Description                                                                  
     l       E           TYP  RCUT    TYP  RCUT                                 
     2     -3.3744664     23  2.300                                             
     2     -4.7350490     23  2.300                                             
     0     -4.1331408     23  2.300                                             
     0      7.6656614     23  2.300                                             
     1     -2.7211652     23  2.300                                             
     1     20.4087390     23  2.300                                             
  local pseudopotential read in
  partial core-charges read in
  partial kinetic energy density read in
  atomic valenz-charges read in
  non local Contribution for L=           2  read in
    real space projection operators read in
  non local Contribution for L=           2  read in
    real space projection operators read in
  non local Contribution for L=           0  read in
    real space projection operators read in
  non local Contribution for L=           0  read in
    real space projection operators read in
  non local Contribution for L=           1  read in
    real space projection operators read in
  non local Contribution for L=           1  read in
    real space projection operators read in
    PAW grid and wavefunctions read in
 
   number of l-projection  operators is LMAX  =           6
   number of lm-projection operators is LMMAX =          18
 

 ----------------------------------------------------------------------------- 
|                                                                             |
|  ADVICE TO THIS USER RUNNING 'VASP/VAMP'   (HEAR YOUR MASTER'S VOICE ...):  |
|                                                                             |
|      You have a (more or less) 'large supercell' and for larger cells       |
|      it might be more efficient to use real space projection opertators     |
|      So try LREAL= Auto  in the INCAR   file.                               |
|      Mind:          For very  accurate calculation you might also keep the  |
|      reciprocal projection scheme          (i.e. LREAL=.FALSE.)             |
|                                                                             |
 ----------------------------------------------------------------------------- 

  PAW_PBE Al 04Jan2001                  :
 energy of atom  1       EATOM=  -53.5387
 kinetic energy error for atom=    0.0005 (will be added to EATOM!!)
  PAW_PBE Mn 06Sep2000                  :
 energy of atom  2       EATOM= -416.7541
 kinetic energy error for atom=    0.0080 (will be added to EATOM!!)
 
 
 POSCAR: NewRef: 27, @ ['Mn', array([1.37502469, 
  positions in cartesian coordinates
  velocities in cartesian coordinates
  No initial velocities read in
 exchange correlation table for  LEXCH =        8
   RHO(1)=    0.500       N(1)  =     2000
   RHO(2)=  100.500       N(2)  =     4000
 


--------------------------------------------------------------------------------------------------------


 ion  position               nearest neighbor table
   1  0.000  0.000  0.000-  28 2.61  30 2.61  34 2.61  36 2.61  46 2.61  48 2.61  52 2.61  54 2.61
                             4 2.75  10 2.75   7 2.75  19 2.75
   2  0.000  0.000  0.333-  28 2.61  34 2.61  46 2.61  52 2.61  29 2.61  47 2.61  35 2.61  53 2.61
                             5 2.75  11 2.75   8 2.75  20 2.75
   3  0.000  0.000  0.667-  29 2.61  35 2.61  47 2.61  53 2.61  30 2.61  48 2.61  36 2.61  54 2.61
                             6 2.75  12 2.75   9 2.75  21 2.75
   4  0.000  0.333  0.000-  28 2.61  30 2.61  46 2.61  48 2.61  31 2.61  33 2.61  49 2.61  51 2.61
                            13 2.75   1 2.75   7 2.75  22 2.75
   5  0.000  0.333  0.333-  28 2.61  46 2.61  31 2.61  49 2.61  47 2.61  29 2.61  32 2.61  50 2.61
                            14 2.75   2 2.75   8 2.75  23 2.75
   6  0.000  0.333  0.667-  29 2.61  47 2.61  32 2.61  50 2.61  48 2.61  30 2.61  33 2.61  51 2.61
                            15 2.75   3 2.75   9 2.75  24 2.75
   7  0.000  0.667  0.000-  31 2.61  33 2.61  49 2.61  51 2.61  34 2.61  36 2.61  52 2.61  54 2.61
                             4 2.75  16 2.75   1 2.75  25 2.75
   8  0.000  0.667  0.333-  31 2.61  49 2.61  34 2.61  52 2.61  50 2.61  32 2.61  35 2.61  53 2.61
                             5 2.75  17 2.75   2 2.75  26 2.75
   9  0.000  0.667  0.667-  32 2.61  50 2.61  35 2.61  53 2.61  51 2.61  33 2.61  36 2.61  54 2.61
                             6 2.75  18 2.75   3 2.75  27 2.75
  10  0.333  0.000  0.000-  28 2.61  30 2.61  34 2.61  36 2.61  37 2.61  39 2.61  43 2.61  45 2.61
                            19 2.75   1 2.75  13 2.75  16 2.75
  11  0.333  0.000  0.333-  28 2.61  34 2.61  37 2.61  43 2.61  29 2.61  35 2.61  38 2.61  44 2.61
                            20 2.75   2 2.75  14 2.75  17 2.75
  12  0.333  0.000  0.667-  29 2.61  35 2.61  38 2.61  44 2.61  30 2.61  36 2.61  39 2.61  45 2.61
                            21 2.75   3 2.75  15 2.75  18 2.75
  13  0.333  0.333  0.000-  28 2.61  30 2.61  31 2.61  33 2.61  37 2.61  39 2.61  40 2.61  42 2.61
                             4 2.75  10 2.75  16 2.75  22 2.75
  14  0.333  0.333  0.333-  28 2.61  31 2.61  37 2.61  29 2.61  40 2.61  38 2.61  32 2.61  41 2.61
                             5 2.75  11 2.75  17 2.75  23 2.75
  15  0.333  0.333  0.667-  29 2.61  32 2.61  38 2.61  30 2.61  41 2.61  39 2.61  33 2.61  42 2.61
                             6 2.75  12 2.75  18 2.75  24 2.75
  16  0.333  0.667  0.000-  31 2.61  33 2.61  34 2.61  36 2.61  40 2.61  42 2.61  43 2.61  45 2.61
                            25 2.75   7 2.75  13 2.75  10 2.75
  17  0.333  0.667  0.333-  31 2.61  34 2.61  40 2.61  32 2.61  43 2.61  41 2.61  35 2.61  44 2.61
                            26 2.75   8 2.75  14 2.75  11 2.75
  18  0.333  0.667  0.667-  32 2.61  35 2.61  41 2.61  33 2.61  44 2.61  42 2.61  36 2.61  45 2.61
                            27 2.75   9 2.75  15 2.75  12 2.75
  19  0.667  0.000  0.000-  37 2.61  39 2.61  43 2.61  45 2.61  46 2.61  48 2.61  52 2.61  54 2.61
                            10 2.75  22 2.75   1 2.75  25 2.75
  20  0.667  0.000  0.333-  37 2.61  43 2.61  46 2.61  52 2.61  38 2.61  44 2.61  47 2.61  53 2.61
                            11 2.75  23 2.75   2 2.75  26 2.75
  21  0.667  0.000  0.667-  38 2.61  44 2.61  47 2.61  53 2.61  39 2.61  45 2.61  48 2.61  54 2.61
                            12 2.75  24 2.75   3 2.75  27 2.75
  22  0.667  0.333  0.000-  37 2.61  39 2.61  40 2.61  42 2.61  46 2.61  48 2.61  49 2.61  51 2.61
                            25 2.75  13 2.75  19 2.75   4 2.75
  23  0.667  0.333  0.333-  37 2.61  40 2.61  46 2.61  38 2.61  49 2.61  47 2.61  41 2.61  50 2.61
                            26 2.75  14 2.75  20 2.75   5 2.75
  24  0.667  0.333  0.667-  38 2.61  41 2.61  47 2.61  39 2.61  50 2.61  48 2.61  42 2.61  51 2.61
                            27 2.75  15 2.75  21 2.75   6 2.75
  25  0.667  0.667  0.000-  40 2.61  42 2.61  43 2.61  45 2.61  49 2.61  51 2.61  52 2.61  54 2.61
                            16 2.75  22 2.75  19 2.75   7 2.75
  26  0.667  0.667  0.333-  40 2.61  43 2.61  49 2.61  41 2.61  52 2.61  50 2.61  44 2.61  53 2.61
                            17 2.75  23 2.75  20 2.75   8 2.75
  27  0.667  0.667  0.667-  41 2.61  44 2.61  50 2.61  42 2.61  53 2.61  51 2.61  45 2.61  54 2.61
                            18 2.75  24 2.75  21 2.75   9 2.75
  28  0.167  0.167  0.167-  14 2.61  11 2.61   5 2.61  13 2.61   2 2.61  10 2.61   4 2.61   1 2.61
                            31 2.75  37 2.75  34 2.75  46 2.75
  29  0.167  0.167  0.500-  15 2.61  12 2.61   6 2.61  14 2.61   3 2.61  11 2.61   5 2.61   2 2.61
                            32 2.75  38 2.75  35 2.75  47 2.75
  30  0.167  0.167  0.833-  13 2.61  15 2.61  10 2.61  12 2.61   4 2.61   6 2.61   1 2.61   3 2.61
                            33 2.75  39 2.75  36 2.75  48 2.75
  31  0.167  0.500  0.167-  17 2.61  14 2.61   8 2.61  16 2.61   5 2.61  13 2.61   7 2.61   4 2.61
                            28 2.75  34 2.75  40 2.75  49 2.75
  32  0.167  0.500  0.500-  18 2.61  15 2.61   9 2.61  17 2.61   6 2.61  14 2.61   8 2.61   5 2.61
                            29 2.75  35 2.75  41 2.75  50 2.75
  33  0.167  0.500  0.833-  16 2.61  18 2.61  13 2.61  15 2.61   7 2.61   9 2.61   4 2.61   6 2.61
                            30 2.75  36 2.75  42 2.75  51 2.75
  34  0.167  0.833  0.167-  11 2.61  17 2.61   2 2.61   8 2.61  16 2.61  10 2.61   7 2.61   1 2.61
                            31 2.75  43 2.75  28 2.75  52 2.75
  35  0.167  0.833  0.500-  12 2.61  18 2.61   3 2.61   9 2.61  17 2.61  11 2.61   8 2.61   2 2.61
                            32 2.75  44 2.75  29 2.75  53 2.75
  36  0.167  0.833  0.833-  10 2.61  12 2.61  16 2.61  18 2.61   1 2.61   3 2.61   7 2.61   9 2.61
                            33 2.75  45 2.75  30 2.75  54 2.75
  37  0.500  0.167  0.167-  23 2.61  20 2.61  14 2.61  22 2.61  11 2.61  19 2.61  13 2.61  10 2.61
                            28 2.75  40 2.75  46 2.75  43 2.75
  38  0.500  0.167  0.500-  24 2.61  21 2.61  15 2.61  23 2.61  12 2.61  20 2.61  14 2.61  11 2.61
                            29 2.75  41 2.75  47 2.75  44 2.75
  39  0.500  0.167  0.833-  22 2.61  24 2.61  19 2.61  21 2.61  13 2.61  15 2.61  10 2.61  12 2.61
                            30 2.75  42 2.75  48 2.75  45 2.75
  40  0.500  0.500  0.167-  26 2.61  23 2.61  17 2.61  25 2.61  14 2.61  22 2.61  16 2.61  13 2.61
                            31 2.75  37 2.75  43 2.75  49 2.75
  41  0.500  0.500  0.500-  27 2.61  24 2.61  18 2.61  26 2.61  15 2.61  23 2.61  17 2.61  14 2.61
                            32 2.75  38 2.75  44 2.75  50 2.75
  42  0.500  0.500  0.833-  25 2.61  27 2.61  22 2.61  24 2.61  16 2.61  18 2.61  13 2.61  15 2.61
                            33 2.75  39 2.75  45 2.75  51 2.75
  43  0.500  0.833  0.167-  20 2.61  26 2.61  11 2.61  17 2.61  25 2.61  19 2.61  16 2.61  10 2.61
                            34 2.75  40 2.75  52 2.75  37 2.75
  44  0.500  0.833  0.500-  21 2.61  27 2.61  12 2.61  18 2.61  26 2.61  20 2.61  17 2.61  11 2.61
                            35 2.75  41 2.75  53 2.75  38 2.75
  45  0.500  0.833  0.833-  19 2.61  21 2.61  25 2.61  27 2.61  10 2.61  12 2.61  16 2.61  18 2.61
                            36 2.75  42 2.75  54 2.75  39 2.75
  46  0.833  0.167  0.167-   5 2.61  23 2.61  20 2.61   2 2.61  22 2.61   4 2.61  19 2.61   1 2.61
                            37 2.75  49 2.75  28 2.75  52 2.75
  47  0.833  0.167  0.500-   6 2.61  24 2.61  21 2.61   3 2.61  23 2.61   5 2.61  20 2.61   2 2.61
                            38 2.75  50 2.75  29 2.75  53 2.75
  48  0.833  0.167  0.833-   4 2.61   6 2.61  22 2.61  24 2.61  19 2.61  21 2.61   1 2.61   3 2.61
                            39 2.75  51 2.75  30 2.75  54 2.75
  49  0.833  0.500  0.167-   8 2.61  26 2.61  23 2.61   5 2.61  25 2.61   7 2.61  22 2.61   4 2.61
                            40 2.75  46 2.75  52 2.75  31 2.75
  50  0.833  0.500  0.500-   9 2.61  27 2.61  24 2.61   6 2.61  26 2.61   8 2.61  23 2.61   5 2.61
                            41 2.75  47 2.75  53 2.75  32 2.75
  51  0.833  0.500  0.833-   7 2.61   9 2.61  25 2.61  27 2.61  22 2.61  24 2.61   4 2.61   6 2.61
                            42 2.75  48 2.75  54 2.75  33 2.75
  52  0.833  0.833  0.167-   2 2.61   8 2.61  20 2.61  26 2.61  19 2.61   7 2.61  25 2.61   1 2.61
                            43 2.75  49 2.75  46 2.75  34 2.75
  53  0.833  0.833  0.500-   3 2.61   9 2.61  21 2.61  27 2.61  20 2.61   8 2.61  26 2.61   2 2.61
                            44 2.75  50 2.75  47 2.75  35 2.75
  54  0.833  0.833  0.833-   1 2.61   3 2.61   7 2.61   9 2.61  19 2.61  21 2.61  25 2.61  27 2.61
                            45 2.75  51 2.75  48 2.75  36 2.75
 
  LATTYP: Found a simple tetragonal cell.
 ALAT       =     8.2501481662
 C/A-ratio  =     1.2642089792
  
  Lattice vectors:
  
 A1 = (   8.2501481662,   0.0000000000,   0.0000000000)
 A2 = (   0.0000000000,   8.2501481662,   0.0000000000)
 A3 = (   0.0000000000,   0.0000000000,  10.4299113916)


Analysis of symmetry for initial positions (statically):
=====================================================================
 Subroutine PRICEL returns following result:
 
  LATTYP: Found a simple tetragonal cell.
 ALAT       =     2.7500493888
 C/A-ratio  =     1.2642089792
  
  Lattice vectors:
  
 A1 = (   2.7500493888,   0.0000000000,   0.0000000000)
 A2 = (   0.0000000000,   2.7500493888,   0.0000000000)
 A3 = (   0.0000000000,   0.0000000000,   3.4766371306)
 
  27 primitive cells build up your supercell.
 

 Routine SETGRP: Setting up the symmetry group for a 
 simple tetragonal supercell.


 Subroutine GETGRP returns: Found 16 space group operations
 (whereof 16 operations were pure point group operations)
 out of a pool of 16 trial point group operations.


The static configuration has the point symmetry D_4h.


Analysis of symmetry for dynamics (positions and initial velocities):
=====================================================================
 Subroutine PRICEL returns following result:
 
  LATTYP: Found a simple tetragonal cell.
 ALAT       =     2.7500493888
 C/A-ratio  =     1.2642089792
  
  Lattice vectors:
  
 A1 = (   2.7500493888,   0.0000000000,   0.0000000000)
 A2 = (   0.0000000000,   2.7500493888,   0.0000000000)
 A3 = (   0.0000000000,   0.0000000000,   3.4766371306)
 
  27 primitive cells build up your supercell.
 

 Routine SETGRP: Setting up the symmetry group for a 
 simple tetragonal supercell.


 Subroutine GETGRP returns: Found 16 space group operations
 (whereof 16 operations were pure point group operations)
 out of a pool of 16 trial point group operations.


The dynamic configuration has the point symmetry D_4h.


Analysis of structural, dynamic, and magnetic symmetry:
=====================================================================
 Subroutine PRICEL returns:
 Original cell was already a primitive cell.
 

 Routine SETGRP: Setting up the symmetry group for a 
 simple tetragonal supercell.


 Subroutine GETGRP returns: Found  1 space group operations
 (whereof  1 operations were pure point group operations)
 out of a pool of 16 trial point group operations.


The magnetic configuration has the point symmetry C_1 .


 Subroutine INISYM returns: Found  1 space group operations
 (whereof  1 operations are pure point group operations),
 and found     1 'primitive' translations

 
 
 KPOINTS: automatic KPOINTS                       

Automatic generation of k-mesh.
 generate k-points for:    5    5    4
Space group operators:
 irot       det(A)        alpha          n_x          n_y          n_z        tau_x        tau_y        tau_z
    1     1.000000     0.000001     1.000000     0.000000     0.000000     0.000000     0.000000     0.000000
 
 Subroutine IBZKPT returns following result:
 ===========================================
 
 Found     51 irreducible k-points:
 
 Following reciprocal coordinates:
            Coordinates               Weight
  0.000000  0.000000  0.000000      1.000000
  0.200000  0.000000  0.000000      2.000000
  0.400000  0.000000  0.000000      2.000000
  0.000000  0.200000  0.000000      2.000000
  0.200000  0.200000  0.000000      2.000000
  0.400000  0.200000  0.000000      2.000000
 -0.400000  0.200000  0.000000      2.000000
 -0.200000  0.200000  0.000000      2.000000
  0.000000  0.400000  0.000000      2.000000
  0.200000  0.400000  0.000000      2.000000
  0.400000  0.400000  0.000000      2.000000
 -0.400000  0.400000  0.000000      2.000000
 -0.200000  0.400000  0.000000      2.000000
  0.000000  0.000000  0.250000      2.000000
  0.200000  0.000000  0.250000      2.000000
  0.400000  0.000000  0.250000      2.000000
 -0.400000  0.000000  0.250000      2.000000
 -0.200000  0.000000  0.250000      2.000000
  0.000000  0.200000  0.250000      2.000000
  0.200000  0.200000  0.250000      2.000000
  0.400000  0.200000  0.250000      2.000000
 -0.400000  0.200000  0.250000      2.000000
 -0.200000  0.200000  0.250000      2.000000
  0.000000  0.400000  0.250000      2.000000
  0.200000  0.400000  0.250000      2.000000
  0.400000  0.400000  0.250000      2.000000
 -0.400000  0.400000  0.250000      2.000000
 -0.200000  0.400000  0.250000      2.000000
  0.000000 -0.400000  0.250000      2.000000
  0.200000 -0.400000  0.250000      2.000000
  0.400000 -0.400000  0.250000      2.000000
 -0.400000 -0.400000  0.250000      2.000000
 -0.200000 -0.400000  0.250000      2.000000
  0.000000 -0.200000  0.250000      2.000000
  0.200000 -0.200000  0.250000      2.000000
  0.400000 -0.200000  0.250000      2.000000
 -0.400000 -0.200000  0.250000      2.000000
 -0.200000 -0.200000  0.250000      2.000000
  0.000000  0.000000  0.500000      1.000000
  0.200000  0.000000  0.500000      2.000000
  0.400000  0.000000  0.500000      2.000000
  0.000000  0.200000  0.500000      2.000000
  0.200000  0.200000  0.500000      2.000000
  0.400000  0.200000  0.500000      2.000000
 -0.400000  0.200000  0.500000      2.000000
 -0.200000  0.200000  0.500000      2.000000
  0.000000  0.400000  0.500000      2.000000
  0.200000  0.400000  0.500000      2.000000
  0.400000  0.400000  0.500000      2.000000
 -0.400000  0.400000  0.500000      2.000000
 -0.200000  0.400000  0.500000      2.000000
 
 Following cartesian coordinates:
            Coordinates               Weight
  0.000000  0.000000  0.000000      1.000000
  0.024242  0.000000  0.000000      2.000000
  0.048484  0.000000  0.000000      2.000000
  0.000000  0.024242  0.000000      2.000000
  0.024242  0.024242  0.000000      2.000000
  0.048484  0.024242  0.000000      2.000000
 -0.048484  0.024242  0.000000      2.000000
 -0.024242  0.024242  0.000000      2.000000
  0.000000  0.048484  0.000000      2.000000
  0.024242  0.048484  0.000000      2.000000
  0.048484  0.048484  0.000000      2.000000
 -0.048484  0.048484  0.000000      2.000000
 -0.024242  0.048484  0.000000      2.000000
  0.000000  0.000000  0.023970      2.000000
  0.024242  0.000000  0.023970      2.000000
  0.048484  0.000000  0.023970      2.000000
 -0.048484  0.000000  0.023970      2.000000
 -0.024242  0.000000  0.023970      2.000000
  0.000000  0.024242  0.023970      2.000000
  0.024242  0.024242  0.023970      2.000000
  0.048484  0.024242  0.023970      2.000000
 -0.048484  0.024242  0.023970      2.000000
 -0.024242  0.024242  0.023970      2.000000
  0.000000  0.048484  0.023970      2.000000
  0.024242  0.048484  0.023970      2.000000
  0.048484  0.048484  0.023970      2.000000
 -0.048484  0.048484  0.023970      2.000000
 -0.024242  0.048484  0.023970      2.000000
  0.000000 -0.048484  0.023970      2.000000
  0.024242 -0.048484  0.023970      2.000000
  0.048484 -0.048484  0.023970      2.000000
 -0.048484 -0.048484  0.023970      2.000000
 -0.024242 -0.048484  0.023970      2.000000
  0.000000 -0.024242  0.023970      2.000000
  0.024242 -0.024242  0.023970      2.000000
  0.048484 -0.024242  0.023970      2.000000
 -0.048484 -0.024242  0.023970      2.000000
 -0.024242 -0.024242  0.023970      2.000000
  0.000000  0.000000  0.047939      1.000000
  0.024242  0.000000  0.047939      2.000000
  0.048484  0.000000  0.047939      2.000000
  0.000000  0.024242  0.047939      2.000000
  0.024242  0.024242  0.047939      2.000000
  0.048484  0.024242  0.047939      2.000000
 -0.048484  0.024242  0.047939      2.000000
 -0.024242  0.024242  0.047939      2.000000
  0.000000  0.048484  0.047939      2.000000
  0.024242  0.048484  0.047939      2.000000
  0.048484  0.048484  0.047939      2.000000
 -0.048484  0.048484  0.047939      2.000000
 -0.024242  0.048484  0.047939      2.000000
 


--------------------------------------------------------------------------------------------------------




 Dimension of arrays:
   k-points           NKPTS =     51   k-points in BZ     NKDIM =     51   number of bands    NBANDS=    180
   number of dos      NEDOS =    301   number of ions     NIONS =     54
   non local maximal  LDIM  =      6   non local SUM 2l+1 LMDIM =     18
   total plane-waves  NPLWV = 204120
   max r-space proj   IRMAX =      1   max aug-charges    IRDMAX=  89713
   dimension x,y,z NGX =    54 NGY =   54 NGZ =   70
   dimension x,y,z NGXF=   108 NGYF=  108 NGZF=  140
   support grid    NGXF=   216 NGYF=  216 NGZF=  280
   ions per type =              27  27
   NGX,Y,Z   is equivalent  to a cutoff of  10.88, 10.88, 11.16 a.u.
   NGXF,Y,Z  is equivalent  to a cutoff of  21.76, 21.76, 22.32 a.u.

 SYSTEM =  AlMn_pv                                 
 POSCAR =  NewRef: 27, @ ['Mn', array([1.37502469, 

 Startparameter for this run:
   NWRITE =      2    write-flag & timer
   PREC   = accura    normal or accurate (medium, high low for compatibility)
   ISTART =      0    job   : 0-new  1-cont  2-samecut
   ICHARG =      2    charge: 1-file 2-atom 10-const
   ISPIN  =      2    spin polarized calculation?
   LNONCOLLINEAR =      F non collinear calculations
   LSORBIT =      F    spin-orbit coupling
   INIWAV =      1    electr: 0-lowe 1-rand  2-diag
   LASPH  =      F    aspherical Exc in radial PAW
   METAGGA=      F    non-selfconsistent MetaGGA calc.

 Electronic Relaxation 1
   ENCUT  =  404.8 eV  29.75 Ry    5.45 a.u.  13.53 13.53 17.11*2*pi/ulx,y,z
   ENINI  =  404.8     initial cutoff
   ENAUG  =  500.7 eV  augmentation charge cutoff
   NELM   =    100;   NELMIN=  4; NELMDL= -8     # of ELM steps 
   EDIFF  = 0.1E-06   stopping-criterion for ELM
   LREAL  =      F    real-space projection
   NLSPLINE    = F    spline interpolate recip. space projectors
   LCOMPAT=      F    compatible to vasp.4.4
   GGA_COMPAT  = T    GGA compatible to vasp.4.4-vasp.4.6
   LMAXPAW     = -100 max onsite density
   LMAXMIX     =    2 max onsite mixed and CHGCAR
   VOSKOWN=      0    Vosko Wilk Nusair interpolation
   ROPT   =    0.00000   0.00000
 Ionic relaxation
   EDIFFG = 0.1E-05   stopping-criterion for IOM
   NSW    =      0    number of steps for IOM
   NBLOCK =      1;   KBLOCK =      1    inner block; outer block 
   IBRION =     -1    ionic relax: 0-MD 1-quasi-New 2-CG
   NFREE  =      0    steps in history (QN), initial steepest desc. (CG)
   ISIF   =      2    stress and relaxation
   IWAVPR =     10    prediction:  0-non 1-charg 2-wave 3-comb
   ISYM   =      2    0-nonsym 1-usesym 2-fastsym
   LCORR  =      T    Harris-Foulkes like correction to forces

   POTIM  = 0.2000    time-step for ionic-motion
   TEIN   =    0.0    initial temperature
   TEBEG  =    0.0;   TEEND  =   0.0 temperature during run
   SMASS  =  -3.00    Nose mass-parameter (am)
   estimated Nose-frequenzy (Omega)   =  0.10E-29 period in steps =****** mass=  -0.156E-26a.u.
   SCALEE = 1.0000    scale energy and forces
   NPACO  =    256;   APACO  = 16.0  distance and # of slots for P.C.
   PSTRESS=    0.0 pullay stress

  Mass of Ions in am
   POMASS =  26.98 54.94
  Ionic Valenz
   ZVAL   =   3.00  7.00
  Atomic Wigner-Seitz radii
   RWIGS  =  -1.00 -1.00
  virtual crystal weights 
   VCA    =   1.00  1.00
   NELECT =     270.0000    total number of electrons
   NUPDOWN=      -1.0000    fix difference up-down

 DOS related values:
   EMIN   =  10.00;   EMAX   =-10.00  energy-range for DOS
   EFERMI =   0.00
   ISMEAR =     1;   SIGMA  =   0.20  broadening in eV -4-tet -1-fermi 0-gaus

 Electronic relaxation 2 (details)
   IALGO  =     58    algorithm
   LDIAG  =      T    sub-space diagonalisation (order eigenvalues)
   LSUBROT=      F    optimize rotation matrix (better conditioning)
   TURBO    =      0    0=normal 1=particle mesh
   IRESTART =      0    0=no restart 2=restart with 2 vectors
   NREBOOT  =      0    no. of reboots
   NMIN     =      0    reboot dimension
   EREF     =   0.00    reference energy to select bands
   IMIX   =      4    mixing-type and parameters
     AMIX     =   0.40;   BMIX     =  1.00
     AMIX_MAG =   1.60;   BMIX_MAG =  1.00
     AMIN     =   0.10
     WC   =   100.;   INIMIX=   1;  MIXPRE=   1;  MAXMIX= -45

 Intra band minimization:
   WEIMIN = 0.0000     energy-eigenvalue tresh-hold
   EBREAK =  0.14E-09  absolut break condition
   DEPER  =   0.30     relativ break condition  

   TIME   =   0.40     timestep for ELM

  volume/ion in A,a.u.               =      13.15        88.72
  Fermi-wavevector in a.u.,A,eV,Ry     =   1.186118  2.241439 19.141722  1.406877
  Thomas-Fermi vector in A             =   2.322298
 
 Write flags
   LWAVE        =      F    write WAVECAR
   LDOWNSAMPLE  =      F    k-point downsampling of WAVECAR
   LCHARG       =      F    write CHGCAR
   LVTOT        =      F    write LOCPOT, total local potential
   LVHAR        =      F    write LOCPOT, Hartree potential only
   LELF         =      F    write electronic localiz. function (ELF)
   LORBIT       =     10    0 simple, 1 ext, 2 COOP (PROOUT), +10 PAW based schemes


 Dipole corrections
   LMONO  =      F    monopole corrections only (constant potential shift)
   LDIPOL =      F    correct potential (dipole corrections)
   IDIPOL =      0    1-x, 2-y, 3-z, 4-all directions 
   EPSILON=  1.0000000 bulk dielectric constant

 Exchange correlation treatment:
   GGA     =    --    GGA type
   LEXCH   =     8    internal setting for exchange type
   VOSKOWN=      0    Vosko Wilk Nusair interpolation
   LHFCALC =     F    Hartree Fock is set to
   LHFONE  =     F    Hartree Fock one center treatment
   AEXX    =    0.0000 exact exchange contribution

 Linear response parameters
   LEPSILON=     F    determine dielectric tensor
   LRPA    =     F    only Hartree local field effects (RPA)
   LNABLA  =     F    use nabla operator in PAW spheres
   LVEL    =     F    velocity operator in full k-point grid
   LINTERFAST=   F  fast interpolation
   KINTER  =     0    interpolate to denser k-point grid
   CSHIFT  =0.1000    complex shift for real part using Kramers Kronig
   OMEGAMAX=  -1.0    maximum frequency
   DEG_THRESHOLD= 0.2000000E-02 threshold for treating states as degnerate
   RTIME   =   -0.100 relaxation time in fs
  (WPLASMAI=    0.000 imaginary part of plasma frequency in eV, 0.658/RTIME)
   DFIELD  = 0.0000000 0.0000000 0.0000000 field for delta impulse in time
 
 Orbital magnetization related:
   ORBITALMAG=     F  switch on orbital magnetization
   LCHIMAG   =     F  perturbation theory with respect to B field
   DQ        =  0.001000  dq finite difference perturbation B field
   LLRAUG    =     F  two centre corrections for induced B field



--------------------------------------------------------------------------------------------------------


 Static calculation
 charge density and potential will be updated during run
 spin polarized calculation
 Conjugate gradient for all bands (Freysoldt, et al. PRB 79, 241103 (2009))
 preconditioned conjugated gradient                                        
 perform sub-space diagonalisation
    before iterative eigenvector-optimisation
 modified Broyden-mixing scheme, WC =      100.0
 initial mixing is a Kerker type mixing with AMIX =  0.4000 and BMIX =      1.0000
 Hartree-type preconditioning will be used
 using additional bands           45
 reciprocal scheme for non local part
 use partial core corrections
 no Harris-corrections to forces 
 use gradient corrections 
 use of overlap-Matrix (Vanderbilt PP)
 Methfessel and Paxton  Order N= 1 SIGMA  =   0.20


--------------------------------------------------------------------------------------------------------


  energy-cutoff  :      404.80
  volume of cell :      709.91
      direct lattice vectors                 reciprocal lattice vectors
     8.250148166  0.000000000  0.000000000     0.121209944  0.000000000  0.000000000
     0.000000000  8.250148166  0.000000000     0.000000000  0.121209944  0.000000000
     0.000000000  0.000000000 10.429911392     0.000000000  0.000000000  0.095878092

  length of vectors
     8.250148166  8.250148166 10.429911392     0.121209944  0.121209944  0.095878092


 
 k-points in units of 2pi/SCALE and weight: automatic KPOINTS                       
   0.00000000  0.00000000  0.00000000       0.010
   0.02424199  0.00000000  0.00000000       0.020
   0.04848398  0.00000000  0.00000000       0.020
   0.00000000  0.02424199  0.00000000       0.020
   0.02424199  0.02424199  0.00000000       0.020
   0.04848398  0.02424199  0.00000000       0.020
  -0.04848398  0.02424199  0.00000000       0.020
  -0.02424199  0.02424199  0.00000000       0.020
   0.00000000  0.04848398  0.00000000       0.020
   0.02424199  0.04848398  0.00000000       0.020
   0.04848398  0.04848398  0.00000000       0.020
  -0.04848398  0.04848398  0.00000000       0.020
  -0.02424199  0.04848398  0.00000000       0.020
   0.00000000  0.00000000  0.02396952       0.020
   0.02424199  0.00000000  0.02396952       0.020
   0.04848398  0.00000000  0.02396952       0.020
  -0.04848398  0.00000000  0.02396952       0.020
  -0.02424199  0.00000000  0.02396952       0.020
   0.00000000  0.02424199  0.02396952       0.020
   0.02424199  0.02424199  0.02396952       0.020
   0.04848398  0.02424199  0.02396952       0.020
  -0.04848398  0.02424199  0.02396952       0.020
  -0.02424199  0.02424199  0.02396952       0.020
   0.00000000  0.04848398  0.02396952       0.020
   0.02424199  0.04848398  0.02396952       0.020
   0.04848398  0.04848398  0.02396952       0.020
  -0.04848398  0.04848398  0.02396952       0.020
  -0.02424199  0.04848398  0.02396952       0.020
   0.00000000 -0.04848398  0.02396952       0.020
   0.02424199 -0.04848398  0.02396952       0.020
   0.04848398 -0.04848398  0.02396952       0.020
  -0.04848398 -0.04848398  0.02396952       0.020
  -0.02424199 -0.04848398  0.02396952       0.020
   0.00000000 -0.02424199  0.02396952       0.020
   0.02424199 -0.02424199  0.02396952       0.020
   0.04848398 -0.02424199  0.02396952       0.020
  -0.04848398 -0.02424199  0.02396952       0.020
  -0.02424199 -0.02424199  0.02396952       0.020
   0.00000000  0.00000000  0.04793905       0.010
   0.02424199  0.00000000  0.04793905       0.020
   0.04848398  0.00000000  0.04793905       0.020
   0.00000000  0.02424199  0.04793905       0.020
   0.02424199  0.02424199  0.04793905       0.020
   0.04848398  0.02424199  0.04793905       0.020
  -0.04848398  0.02424199  0.04793905       0.020
  -0.02424199  0.02424199  0.04793905       0.020
   0.00000000  0.04848398  0.04793905       0.020
   0.02424199  0.04848398  0.04793905       0.020
   0.04848398  0.04848398  0.04793905       0.020
  -0.04848398  0.04848398  0.04793905       0.020
  -0.02424199  0.04848398  0.04793905       0.020
 
 k-points in reciprocal lattice and weights: automatic KPOINTS                       
   0.00000000  0.00000000  0.00000000       0.010
   0.20000000  0.00000000  0.00000000       0.020
   0.40000000  0.00000000  0.00000000       0.020
   0.00000000  0.20000000  0.00000000       0.020
   0.20000000  0.20000000  0.00000000       0.020
   0.40000000  0.20000000  0.00000000       0.020
  -0.40000000  0.20000000  0.00000000       0.020
  -0.20000000  0.20000000  0.00000000       0.020
   0.00000000  0.40000000  0.00000000       0.020
   0.20000000  0.40000000  0.00000000       0.020
   0.40000000  0.40000000  0.00000000       0.020
  -0.40000000  0.40000000  0.00000000       0.020
  -0.20000000  0.40000000  0.00000000       0.020
   0.00000000  0.00000000  0.25000000       0.020
   0.20000000  0.00000000  0.25000000       0.020
   0.40000000  0.00000000  0.25000000       0.020
  -0.40000000  0.00000000  0.25000000       0.020
  -0.20000000  0.00000000  0.25000000       0.020
   0.00000000  0.20000000  0.25000000       0.020
   0.20000000  0.20000000  0.25000000       0.020
   0.40000000  0.20000000  0.25000000       0.020
  -0.40000000  0.20000000  0.25000000       0.020
  -0.20000000  0.20000000  0.25000000       0.020
   0.00000000  0.40000000  0.25000000       0.020
   0.20000000  0.40000000  0.25000000       0.020
   0.40000000  0.40000000  0.25000000       0.020
  -0.40000000  0.40000000  0.25000000       0.020
  -0.20000000  0.40000000  0.25000000       0.020
   0.00000000 -0.40000000  0.25000000       0.020
   0.20000000 -0.40000000  0.25000000       0.020
   0.40000000 -0.40000000  0.25000000       0.020
  -0.40000000 -0.40000000  0.25000000       0.020
  -0.20000000 -0.40000000  0.25000000       0.020
   0.00000000 -0.20000000  0.25000000       0.020
   0.20000000 -0.20000000  0.25000000       0.020
   0.40000000 -0.20000000  0.25000000       0.020
  -0.40000000 -0.20000000  0.25000000       0.020
  -0.20000000 -0.20000000  0.25000000       0.020
   0.00000000  0.00000000  0.50000000       0.010
   0.20000000  0.00000000  0.50000000       0.020
   0.40000000  0.00000000  0.50000000       0.020
   0.00000000  0.20000000  0.50000000       0.020
   0.20000000  0.20000000  0.50000000       0.020
   0.40000000  0.20000000  0.50000000       0.020
  -0.40000000  0.20000000  0.50000000       0.020
  -0.20000000  0.20000000  0.50000000       0.020
   0.00000000  0.40000000  0.50000000       0.020
   0.20000000  0.40000000  0.50000000       0.020
   0.40000000  0.40000000  0.50000000       0.020
  -0.40000000  0.40000000  0.50000000       0.020
  -0.20000000  0.40000000  0.50000000       0.020
 
 position of ions in fractional coordinates (direct lattice) 
   0.00000000  0.00000000  0.00000000
   0.00000000  0.00000000  0.33333333
   0.00000000  0.00000000  0.66666667
   0.00000000  0.33333333  0.00000000
   0.00000000  0.33333333  0.33333333
   0.00000000  0.33333333  0.66666667
   0.00000000  0.66666667  0.00000000
   0.00000000  0.66666667  0.33333333
   0.00000000  0.66666667  0.66666667
   0.33333333  0.00000000  0.00000000
   0.33333333  0.00000000  0.33333333
   0.33333333  0.00000000  0.66666667
   0.33333333  0.33333333  0.00000000
   0.33333333  0.33333333  0.33333333
   0.33333333  0.33333333  0.66666667
   0.33333333  0.66666667  0.00000000
   0.33333333  0.66666667  0.33333333
   0.33333333  0.66666667  0.66666667
   0.66666667  0.00000000  0.00000000
   0.66666667  0.00000000  0.33333333
   0.66666667  0.00000000  0.66666667
   0.66666667  0.33333333  0.00000000
   0.66666667  0.33333333  0.33333333
   0.66666667  0.33333333  0.66666667
   0.66666667  0.66666667  0.00000000
   0.66666667  0.66666667  0.33333333
   0.66666667  0.66666667  0.66666667
   0.16666667  0.16666667  0.16666667
   0.16666667  0.16666667  0.50000000
   0.16666667  0.16666667  0.83333333
   0.16666667  0.50000000  0.16666667
   0.16666667  0.50000000  0.50000000
   0.16666667  0.50000000  0.83333333
   0.16666667  0.83333333  0.16666667
   0.16666667  0.83333333  0.50000000
   0.16666667  0.83333333  0.83333333
   0.50000000  0.16666667  0.16666667
   0.50000000  0.16666667  0.50000000
   0.50000000  0.16666667  0.83333333
   0.50000000  0.50000000  0.16666667
   0.50000000  0.50000000  0.50000000
   0.50000000  0.50000000  0.83333333
   0.50000000  0.83333333  0.16666667
   0.50000000  0.83333333  0.50000000
   0.50000000  0.83333333  0.83333333
   0.83333333  0.16666667  0.16666667
   0.83333333  0.16666667  0.50000000
   0.83333333  0.16666667  0.83333333
   0.83333333  0.50000000  0.16666667
   0.83333333  0.50000000  0.50000000
   0.83333333  0.50000000  0.83333333
   0.83333333  0.83333333  0.16666667
   0.83333333  0.83333333  0.50000000
   0.83333333  0.83333333  0.83333333
 
 position of ions in cartesian coordinates  (Angst):
   0.00000000  0.00000000  0.00000000
   0.00000000  0.00000000  3.47663713
   0.00000000  0.00000000  6.95327426
   0.00000000  2.75004939  0.00000000
   0.00000000  2.75004939  3.47663713
   0.00000000  2.75004939  6.95327426
   0.00000000  5.50009878  0.00000000
   0.00000000  5.50009878  3.47663713
   0.00000000  5.50009878  6.95327426
   2.75004939  0.00000000  0.00000000
   2.75004939  0.00000000  3.47663713
   2.75004939  0.00000000  6.95327426
   2.75004939  2.75004939  0.00000000
   2.75004939  2.75004939  3.47663713
   2.75004939  2.75004939  6.95327426
   2.75004939  5.50009878  0.00000000
   2.75004939  5.50009878  3.47663713
   2.75004939  5.50009878  6.95327426
   5.50009878  0.00000000  0.00000000
   5.50009878  0.00000000  3.47663713
   5.50009878  0.00000000  6.95327426
   5.50009878  2.75004939  0.00000000
   5.50009878  2.75004939  3.47663713
   5.50009878  2.75004939  6.95327426
   5.50009878  5.50009878  0.00000000
   5.50009878  5.50009878  3.47663713
   5.50009878  5.50009878  6.95327426
   1.37502469  1.37502469  1.73831857
   1.37502469  1.37502469  5.21495570
   1.37502469  1.37502469  8.69159283
   1.37502469  4.12507408  1.73831857
   1.37502469  4.12507408  5.21495570
   1.37502469  4.12507408  8.69159283
   1.37502469  6.87512347  1.73831857
   1.37502469  6.87512347  5.21495570
   1.37502469  6.87512347  8.69159283
   4.12507408  1.37502469  1.73831857
   4.12507408  1.37502469  5.21495570
   4.12507408  1.37502469  8.69159283
   4.12507408  4.12507408  1.73831857
   4.12507408  4.12507408  5.21495570
   4.12507408  4.12507408  8.69159283
   4.12507408  6.87512347  1.73831857
   4.12507408  6.87512347  5.21495570
   4.12507408  6.87512347  8.69159283
   6.87512347  1.37502469  1.73831857
   6.87512347  1.37502469  5.21495570
   6.87512347  1.37502469  8.69159283
   6.87512347  4.12507408  1.73831857
   6.87512347  4.12507408  5.21495570
   6.87512347  4.12507408  8.69159283
   6.87512347  6.87512347  1.73831857
   6.87512347  6.87512347  5.21495570
   6.87512347  6.87512347  8.69159283
 


--------------------------------------------------------------------------------------------------------


 k-point  1 :   0.0000 0.0000 0.0000  plane waves:   13099
 k-point  2 :   0.2000 0.0000 0.0000  plane waves:   13101
 k-point  3 :   0.4000 0.0000 0.0000  plane waves:   13111
 k-point  4 :   0.0000 0.2000 0.0000  plane waves:   13101
 k-point  5 :   0.2000 0.2000 0.0000  plane waves:   13137
 k-point  6 :   0.4000 0.2000 0.0000  plane waves:   13119
 k-point  7 :  -0.4000 0.2000 0.0000  plane waves:   13119
 k-point  8 :  -0.2000 0.2000 0.0000  plane waves:   13137
 k-point  9 :   0.0000 0.4000 0.0000  plane waves:   13111
 k-point 10 :   0.2000 0.4000 0.0000  plane waves:   13119
 k-point 11 :   0.4000 0.4000 0.0000  plane waves:   13129
 k-point 12 :  -0.4000 0.4000 0.0000  plane waves:   13129
 k-point 13 :  -0.2000 0.4000 0.0000  plane waves:   13119
 k-point 14 :   0.0000 0.0000 0.2500  plane waves:   13134
 k-point 15 :   0.2000 0.0000 0.2500  plane waves:   13149
 k-point 16 :   0.4000 0.0000 0.2500  plane waves:   13119
 k-point 17 :  -0.4000 0.0000 0.2500  plane waves:   13119
 k-point 18 :  -0.2000 0.0000 0.2500  plane waves:   13149
 k-point 19 :   0.0000 0.2000 0.2500  plane waves:   13149
 k-point 20 :   0.2000 0.2000 0.2500  plane waves:   13145
 k-point 21 :   0.4000 0.2000 0.2500  plane waves:   13134
 k-point 22 :  -0.4000 0.2000 0.2500  plane waves:   13134
 k-point 23 :  -0.2000 0.2000 0.2500  plane waves:   13145
 k-point 24 :   0.0000 0.4000 0.2500  plane waves:   13119
 k-point 25 :   0.2000 0.4000 0.2500  plane waves:   13134
 k-point 26 :   0.4000 0.4000 0.2500  plane waves:   13108
 k-point 27 :  -0.4000 0.4000 0.2500  plane waves:   13108
 k-point 28 :  -0.2000 0.4000 0.2500  plane waves:   13134
 k-point 29 :   0.0000-0.4000 0.2500  plane waves:   13119
 k-point 30 :   0.2000-0.4000 0.2500  plane waves:   13134
 k-point 31 :   0.4000-0.4000 0.2500  plane waves:   13108
 k-point 32 :  -0.4000-0.4000 0.2500  plane waves:   13108
 k-point 33 :  -0.2000-0.4000 0.2500  plane waves:   13134
 k-point 34 :   0.0000-0.2000 0.2500  plane waves:   13149
 k-point 35 :   0.2000-0.2000 0.2500  plane waves:   13145
 k-point 36 :   0.4000-0.2000 0.2500  plane waves:   13134
 k-point 37 :  -0.4000-0.2000 0.2500  plane waves:   13134
 k-point 38 :  -0.2000-0.2000 0.2500  plane waves:   13145
 k-point 39 :   0.0000 0.0000 0.5000  plane waves:   13186
 k-point 40 :   0.2000 0.0000 0.5000  plane waves:   13124
 k-point 41 :   0.4000 0.0000 0.5000  plane waves:   13152
 k-point 42 :   0.0000 0.2000 0.5000  plane waves:   13124
 k-point 43 :   0.2000 0.2000 0.5000  plane waves:   13136
 k-point 44 :   0.4000 0.2000 0.5000  plane waves:   13128
 k-point 45 :  -0.4000 0.2000 0.5000  plane waves:   13128
 k-point 46 :  -0.2000 0.2000 0.5000  plane waves:   13136
 k-point 47 :   0.0000 0.4000 0.5000  plane waves:   13152
 k-point 48 :   0.2000 0.4000 0.5000  plane waves:   13128
 k-point 49 :   0.4000 0.4000 0.5000  plane waves:   13112
 k-point 50 :  -0.4000 0.4000 0.5000  plane waves:   13112
 k-point 51 :  -0.2000 0.4000 0.5000  plane waves:   13128

 maximum and minimum number of plane-waves per node :      3327     3200

 maximum number of plane-waves:     13186
 maximum index in each direction: 
   IXMAX=   13   IYMAX=   13   IZMAX=   17
   IXMIN=  -13   IYMIN=  -13   IZMIN=  -17


 parallel 3D FFT for wavefunctions:
    minimum data exchange during FFTs selected (reduces bandwidth)
 parallel 3D FFT for charge:
    minimum data exchange during FFTs selected (reduces bandwidth)


 total amount of memory used by VASP MPI-rank0  1673589. kBytes
=======================================================================

   base      :      30000. kBytes
   nonl-proj :      51477. kBytes
   fftplans  :      31580. kBytes
   grid      :      21385. kBytes
   one-center:        435. kBytes
   wavefun   :    1538712. kBytes
 
     INWAV:  cpu time    0.0001: real time    0.0001
 Broyden mixing: mesh for mixing (old mesh)
   NGX = 27   NGY = 27   NGZ = 35
  (NGX  =108   NGY  =108   NGZ  =140)
  gives a total of  25515 points

 initial charge density was supplied:
 charge density of overlapping atoms calculated
 number of electron     270.0000000 magnetization      33.0000000
 keeping initial charge density in first step


--------------------------------------------------------------------------------------------------------


 Maximum index for augmentation-charges        10967 (set IRDMAX)


--------------------------------------------------------------------------------------------------------


 First call to EWALD:  gamma=   0.199
 Maximum number of real-space cells 3x 3x 2
 Maximum number of reciprocal cells 3x 3x 3

    FEWALD:  cpu time    0.0179: real time    0.0179


--------------------------------------- Iteration      1(   1)  ---------------------------------------


    POTLOK:  cpu time    0.3964: real time    0.3963
    SETDIJ:  cpu time    0.4585: real time    0.4647
    TRIAL :  cpu time   60.5298: real time   61.7274
    CORREC:  cpu time    0.0104: real time    0.0112
    --------------------------------------------
      LOOP:  cpu time   61.9162: real time   63.1273

 eigenvalue-minimisations  : 36728
 total energy-change (2. order) : 0.2026762E+04  (-0.8941246E+04)
 number of electron     270.0000000 magnetization      33.0000000
 augmentation part      270.0000000 magnetization      33.0000000

 Free energy of the ion-electron system (eV)
  ---------------------------------------------------
  alpha Z        PSCENC =       798.38614055
  Ewald energy   TEWEN  =    -12901.57693327
  -Hartree energ DENC   =     -2855.60785864
  -exchange      EXHF   =         0.00000000
  -V(xc)+E(xc)   XCENC  =      -996.17512034
  PAW double counting   =     12741.82587617   -11476.22345381
  entropy T*S    EENTRO =        -0.00329643
  eigenvalues    EBANDS =      4018.46236415
  atomic energy  EATOM  =     12697.67401269
  ---------------------------------------------------
  free energy    TOTEN  =      2026.76173106 eV

  energy without entropy =     2026.76502749  energy(sigma->0) =     2026.76282987


--------------------------------------------------------------------------------------------------------




--------------------------------------- Iteration      1(   2)  ---------------------------------------


    TRIAL :  cpu time   60.5563: real time   61.7010
    CORREC:  cpu time    0.0128: real time    0.0137
    --------------------------------------------
      LOOP:  cpu time   60.5700: real time   61.7183

 eigenvalue-minimisations  : 36720
 total energy-change (2. order) :-0.2136178E+04  (-0.2068127E+04)
 number of electron     270.0000000 magnetization      33.0000000
 augmentation part      270.0000000 magnetization      33.0000000

 Free energy of the ion-electron system (eV)
  ---------------------------------------------------
  alpha Z        PSCENC =       798.38614055
  Ewald energy   TEWEN  =    -12901.57693327
  -Hartree energ DENC   =     -2855.60785864
  -exchange      EXHF   =         0.00000000
  -V(xc)+E(xc)   XCENC  =      -996.17512034
  PAW double counting   =     12741.82587617   -11476.22345381
  entropy T*S    EENTRO =        -0.00337656
  eigenvalues    EBANDS =      1882.28420726
  atomic energy  EATOM  =     12697.67401269
  ---------------------------------------------------
  free energy    TOTEN  =      -109.41650597 eV

  energy without entropy =     -109.41312940  energy(sigma->0) =     -109.41538045


--------------------------------------------------------------------------------------------------------




--------------------------------------- Iteration      1(   3)  ---------------------------------------


    TRIAL :  cpu time   82.9604: real time   84.8954
    CORREC:  cpu time    0.0141: real time    0.0150
    --------------------------------------------
      LOOP:  cpu time   82.9754: real time   84.9138

 eigenvalue-minimisations  : 54984
 total energy-change (2. order) :-0.2515412E+03  (-0.2184810E+03)
 number of electron     270.0000000 magnetization      33.0000000
 augmentation part      270.0000000 magnetization      33.0000000

 Free energy of the ion-electron system (eV)
  ---------------------------------------------------
  alpha Z        PSCENC =       798.38614055
  Ewald energy   TEWEN  =    -12901.57693327
  -Hartree energ DENC   =     -2855.60785864
  -exchange      EXHF   =         0.00000000
  -V(xc)+E(xc)   XCENC  =      -996.17512034
  PAW double counting   =     12741.82587617   -11476.22345381
  entropy T*S    EENTRO =         0.00567094
  eigenvalues    EBANDS =      1630.73391930
  atomic energy  EATOM  =     12697.67401269
  ---------------------------------------------------
  free energy    TOTEN  =      -360.95774642 eV

  energy without entropy =     -360.96341736  energy(sigma->0) =     -360.95963673


--------------------------------------------------------------------------------------------------------




--------------------------------------- Iteration      1(   4)  ---------------------------------------


    TRIAL :  cpu time   88.7781: real time   90.2687
    CORREC:  cpu time    0.0153: real time    0.0161
    --------------------------------------------
      LOOP:  cpu time   88.7947: real time   90.2884

 eigenvalue-minimisations  : 59568
 total energy-change (2. order) :-0.3908937E+02  (-0.3390658E+02)
 number of electron     270.0000000 magnetization      33.0000000
 augmentation part      270.0000000 magnetization      33.0000000

 Free energy of the ion-electron system (eV)
  ---------------------------------------------------
  alpha Z        PSCENC =       798.38614055
  Ewald energy   TEWEN  =    -12901.57693327
  -Hartree energ DENC   =     -2855.60785864
  -exchange      EXHF   =         0.00000000
  -V(xc)+E(xc)   XCENC  =      -996.17512034
  PAW double counting   =     12741.82587617   -11476.22345381
  entropy T*S    EENTRO =         0.01464624
  eigenvalues    EBANDS =      1591.63557200
  atomic energy  EATOM  =     12697.67401269
  ---------------------------------------------------
  free energy    TOTEN  =      -400.04711842 eV

  energy without entropy =     -400.06176466  energy(sigma->0) =     -400.05200050


--------------------------------------------------------------------------------------------------------




--------------------------------------- Iteration      1(   5)  ---------------------------------------


    TRIAL :  cpu time   89.2182: real time   91.2484
    CORREC:  cpu time    0.0155: real time    0.0163
    --------------------------------------------
      LOOP:  cpu time   89.2358: real time   91.2688

 eigenvalue-minimisations  : 59984
 total energy-change (2. order) :-0.3620662E+01  (-0.3449948E+01)
 number of electron     270.0000000 magnetization      33.0000000
 augmentation part      270.0000000 magnetization      33.0000000

 Free energy of the ion-electron system (eV)
  ---------------------------------------------------
  alpha Z        PSCENC =       798.38614055
  Ewald energy   TEWEN  =    -12901.57693327
  -Hartree energ DENC   =     -2855.60785864
  -exchange      EXHF   =         0.00000000
  -V(xc)+E(xc)   XCENC  =      -996.17512034
  PAW double counting   =     12741.82587617   -11476.22345381
  entropy T*S    EENTRO =         0.01588526
  eigenvalues    EBANDS =      1588.01367085
  atomic energy  EATOM  =     12697.67401269
  ---------------------------------------------------
  free energy    TOTEN  =      -403.66778055 eV

  energy without entropy =     -403.68366581  energy(sigma->0) =     -403.67307564


--------------------------------------------------------------------------------------------------------




--------------------------------------- Iteration      1(   6)  ---------------------------------------


    TRIAL :  cpu time   89.2072: real time   90.6183
    CORREC:  cpu time    0.0156: real time    0.0165
    --------------------------------------------
      LOOP:  cpu time   89.2247: real time   90.6391

 eigenvalue-minimisations  : 59944
 total energy-change (2. order) :-0.2943883E+00  (-0.2893680E+00)
 number of electron     270.0000000 magnetization      33.0000000
 augmentation part      270.0000000 magnetization      33.0000000

 Free energy of the ion-electron system (eV)
  ---------------------------------------------------
  alpha Z        PSCENC =       798.38614055
  Ewald energy   TEWEN  =    -12901.57693327
  -Hartree energ DENC   =     -2855.60785864
  -exchange      EXHF   =         0.00000000
  -V(xc)+E(xc)   XCENC  =      -996.17512034
  PAW double counting   =     12741.82587617   -11476.22345381
  entropy T*S    EENTRO =         0.01616175
  eigenvalues    EBANDS =      1587.71900610
  atomic energy  EATOM  =     12697.67401269
  ---------------------------------------------------
  free energy    TOTEN  =      -403.96216881 eV

  energy without entropy =     -403.97833056  energy(sigma->0) =     -403.96755606


--------------------------------------------------------------------------------------------------------




--------------------------------------- Iteration      1(   7)  ---------------------------------------


    TRIAL :  cpu time   90.2317: real time   92.3059
    CORREC:  cpu time    0.0156: real time    0.0165
    --------------------------------------------
      LOOP:  cpu time   90.2486: real time   92.3265

 eigenvalue-minimisations  : 60896
 total energy-change (2. order) :-0.3202565E-01  (-0.3178393E-01)
 number of electron     270.0000000 magnetization      33.0000000
 augmentation part      270.0000000 magnetization      33.0000000

 Free energy of the ion-electron system (eV)
  ---------------------------------------------------
  alpha Z        PSCENC =       798.38614055
  Ewald energy   TEWEN  =    -12901.57693327
  -Hartree energ DENC   =     -2855.60785864
  -exchange      EXHF   =         0.00000000
  -V(xc)+E(xc)   XCENC  =      -996.17512034
  PAW double counting   =     12741.82587617   -11476.22345381
  entropy T*S    EENTRO =         0.01614696
  eigenvalues    EBANDS =      1587.68699524
  atomic energy  EATOM  =     12697.67401269
  ---------------------------------------------------
  free energy    TOTEN  =      -403.99419446 eV

  energy without entropy =     -404.01034143  energy(sigma->0) =     -403.99957678


--------------------------------------------------------------------------------------------------------




--------------------------------------- Iteration      1(   8)  ---------------------------------------


    TRIAL :  cpu time   88.3871: real time   89.9630
    CORREC:  cpu time    0.0183: real time    0.0190
    CHARGE:  cpu time    2.4708: real time    2.4708
    --------------------------------------------
      LOOP:  cpu time   90.8775: real time   92.4568

 eigenvalue-minimisations  : 59120
 total energy-change (2. order) :-0.2672891E-02  (-0.2661029E-02)
 number of electron     269.9999995 magnetization      23.7405234
 augmentation part       64.2085456 magnetization      13.6833645

 Free energy of the ion-electron system (eV)
  ---------------------------------------------------
  alpha Z        PSCENC =       798.38614055
  Ewald energy   TEWEN  =    -12901.57693327
  -Hartree energ DENC   =     -2855.60785864
  -exchange      EXHF   =         0.00000000
  -V(xc)+E(xc)   XCENC  =      -996.17512034
  PAW double counting   =     12741.82587617   -11476.22345381
  entropy T*S    EENTRO =         0.01615460
  eigenvalues    EBANDS =      1587.68431471
  atomic energy  EATOM  =     12697.67401269
  ---------------------------------------------------
  free energy    TOTEN  =      -403.99686735 eV

  energy without entropy =     -404.01302195  energy(sigma->0) =     -404.00225222


--------------------------------------------------------------------------------------------------------




--------------------------------------- Iteration      1(   9)  ---------------------------------------


    POTLOK:  cpu time    0.3967: real time    0.3967
    SETDIJ:  cpu time    0.4582: real time    0.4582
    TRIAL :  cpu time   31.2688: real time   32.3502
    CORREC:  cpu time    8.5889: real time    8.7317
    CHARGE:  cpu time    2.4444: real time    2.5011
    --------------------------------------------
      LOOP:  cpu time   43.1583: real time   44.4421

 eigenvalue-minimisations  :     0
 total energy-change (2. order) : 0.2996039E+03  (-0.2183672E+03)
 number of electron     269.9999993 magnetization      25.1871042
 augmentation part       82.8084860 magnetization      16.5549107

 Free energy of the ion-electron system (eV)
  ---------------------------------------------------
  alpha Z        PSCENC =       798.38614055
  Ewald energy   TEWEN  =    -12901.57693327
  -Hartree energ DENC   =     -1273.36055108
  -exchange      EXHF   =         0.00000000
  -V(xc)+E(xc)   XCENC  =     -1041.70816819
  PAW double counting   =     19170.55126344   -17751.16209311
  entropy T*S    EENTRO =         0.02678237
  eigenvalues    EBANDS =       196.78716295
  atomic energy  EATOM  =     12697.67401269
  ---------------------------------------------------
  free energy    TOTEN  =      -104.39301142 eV

  energy without entropy =     -104.41979379  energy(sigma->0) =     -104.40193888


--------------------------------------------------------------------------------------------------------




--------------------------------------- Iteration      1(  10)  ---------------------------------------


    POTLOK:  cpu time    0.3919: real time    0.3919
    SETDIJ:  cpu time    0.4702: real time    0.4704
    TRIAL :  cpu time   30.8266: real time   31.7872
    CORREC:  cpu time    8.4861: real time    8.5062
    CHARGE:  cpu time    2.4709: real time    2.4710
    --------------------------------------------
      LOOP:  cpu time   42.6565: real time   43.6384

 eigenvalue-minimisations  :     0
 total energy-change (2. order) :-0.2147699E+03  (-0.1228657E+02)
 number of electron     269.9999993 magnetization      25.6145359
 augmentation part       86.9588762 magnetization      17.3356891

 Free energy of the ion-electron system (eV)
  ---------------------------------------------------
  alpha Z        PSCENC =       798.38614055
  Ewald energy   TEWEN  =    -12901.57693327
  -Hartree energ DENC   =     -2123.89467860
  -exchange      EXHF   =         0.00000000
  -V(xc)+E(xc)   XCENC  =     -1011.79276947
  PAW double counting   =     20756.50333172   -19522.20080559
  entropy T*S    EENTRO =         0.02097565
  eigenvalues    EBANDS =       987.71198132
  atomic energy  EATOM  =     12697.67401269
  ---------------------------------------------------
  free energy    TOTEN  =      -319.16293828 eV

  energy without entropy =     -319.18391393  energy(sigma->0) =     -319.16993016


--------------------------------------------------------------------------------------------------------




--------------------------------------- Iteration      1(  11)  ---------------------------------------


    POTLOK:  cpu time    0.3975: real time    0.3976
    SETDIJ:  cpu time    1.2370: real time    1.2370
    TRIAL :  cpu time   30.7240: real time   31.0895
    CORREC:  cpu time    8.5578: real time    9.2421
    CHARGE:  cpu time    2.4320: real time    2.4413
    --------------------------------------------
      LOOP:  cpu time   43.6306: real time   44.6915

 eigenvalue-minimisations  :     0
 total energy-change (2. order) :-0.1191287E+02  (-0.1062153E+02)
 number of electron     269.9999992 magnetization      26.1393400
 augmentation part       88.9414115 magnetization      17.9459289

 Free energy of the ion-electron system (eV)
  ---------------------------------------------------
  alpha Z        PSCENC =       798.38614055
  Ewald energy   TEWEN  =    -12901.57693327
  -Hartree energ DENC   =     -2377.40563812
  -exchange      EXHF   =         0.00000000
  -V(xc)+E(xc)   XCENC  =     -1002.69087051
  PAW double counting   =     21687.62061356   -20493.24078645
  entropy T*S    EENTRO =         0.00111956
  eigenvalues    EBANDS =      1260.13668153
  atomic energy  EATOM  =     12697.67401269
  ---------------------------------------------------
  free energy    TOTEN  =      -331.07580438 eV

  energy without entropy =     -331.07692394  energy(sigma->0) =     -331.07617756


--------------------------------------------------------------------------------------------------------




--------------------------------------- Iteration      1(  12)  ---------------------------------------


    POTLOK:  cpu time    0.4186: real time    0.4186
    SETDIJ:  cpu time    0.4562: real time    0.4562
    TRIAL :  cpu time   30.8149: real time   31.0848
    CORREC:  cpu time    8.4906: real time    8.5807
    CHARGE:  cpu time    2.4310: real time    2.4728
    --------------------------------------------
      LOOP:  cpu time   42.6142: real time   43.0170

 eigenvalue-minimisations  :     0
 total energy-change (2. order) :-0.1073269E+02  (-0.1051068E+02)
 number of electron     269.9999992 magnetization      26.2494217
 augmentation part       87.1348096 magnetization      18.0553590

 Free energy of the ion-electron system (eV)
  ---------------------------------------------------
  alpha Z        PSCENC =       798.38614055
  Ewald energy   TEWEN  =    -12901.57693327
  -Hartree energ DENC   =     -2554.91194884
  -exchange      EXHF   =         0.00000000
  -V(xc)+E(xc)   XCENC  =      -996.84593837
  PAW double counting   =     21779.57149905   -20590.31069872
  entropy T*S    EENTRO =        -0.00860220
  eigenvalues    EBANDS =      1426.20424913
  atomic energy  EATOM  =     12697.67401269
  ---------------------------------------------------
  free energy    TOTEN  =      -341.80849821 eV

  energy without entropy =     -341.79989601  energy(sigma->0) =     -341.80563081


--------------------------------------------------------------------------------------------------------




--------------------------------------- Iteration      1(  13)  ---------------------------------------


    POTLOK:  cpu time    0.3914: real time    0.3914
    SETDIJ:  cpu time    0.4816: real time    0.4816
    TRIAL :  cpu time   30.7896: real time   31.6142
    CORREC:  cpu time    9.1380: real time    9.2491
    CHARGE:  cpu time    2.4660: real time    2.4660
    --------------------------------------------
      LOOP:  cpu time   43.2709: real time   44.2068

 eigenvalue-minimisations  :     0
 total energy-change (2. order) :-0.1041178E+02  (-0.1096765E+01)
 number of electron     269.9999993 magnetization      26.1279696
 augmentation part       86.4666138 magnetization      17.9586279

 Free energy of the ion-electron system (eV)
  ---------------------------------------------------
  alpha Z        PSCENC =       798.38614055
  Ewald energy   TEWEN  =    -12901.57693327
  -Hartree energ DENC   =     -2541.48884985
  -exchange      EXHF   =         0.00000000
  -V(xc)+E(xc)   XCENC  =      -998.16075226
  PAW double counting   =     21225.61246397   -19991.31360731
  entropy T*S    EENTRO =        -0.01403883
  eigenvalues    EBANDS =      1358.65584740
  atomic energy  EATOM  =     12697.67401269
  ---------------------------------------------------
  free energy    TOTEN  =      -352.22028028 eV

  energy without entropy =     -352.20624146  energy(sigma->0) =     -352.21560067


--------------------------------------------------------------------------------------------------------




--------------------------------------- Iteration      1(  14)  ---------------------------------------


    POTLOK:  cpu time    0.3917: real time    0.3917
    SETDIJ:  cpu time    0.4533: real time    0.4533
    TRIAL :  cpu time   30.7821: real time   31.8167
    CORREC:  cpu time    8.5065: real time    8.5483
    CHARGE:  cpu time    2.4247: real time    2.4386
    --------------------------------------------
      LOOP:  cpu time   42.5612: real time   43.6522

 eigenvalue-minimisations  :     0
 total energy-change (2. order) :-0.1078202E+01  (-0.1146260E+01)
 number of electron     269.9999992 magnetization      26.2043473
 augmentation part       85.8252719 magnetization      17.8070847

 Free energy of the ion-electron system (eV)
  ---------------------------------------------------
  alpha Z        PSCENC =       798.38614055
  Ewald energy   TEWEN  =    -12901.57693327
  -Hartree energ DENC   =     -2509.15917526
  -exchange      EXHF   =         0.00000000
  -V(xc)+E(xc)   XCENC  =      -999.37860067
  PAW double counting   =     20977.81968358   -19732.77406950
  entropy T*S    EENTRO =        -0.01459724
  eigenvalues    EBANDS =      1315.72449891
  atomic energy  EATOM  =     12697.67401269
  ---------------------------------------------------
  free energy    TOTEN  =      -353.29848180 eV

  energy without entropy =     -353.28388457  energy(sigma->0) =     -353.29361606


--------------------------------------------------------------------------------------------------------




--------------------------------------- Iteration      1(  15)  ---------------------------------------


    POTLOK:  cpu time    0.4002: real time    0.4002
    SETDIJ:  cpu time    0.4610: real time    0.4610
    TRIAL :  cpu time   30.7554: real time   31.1196
    CORREC:  cpu time    8.5603: real time    9.2306
    CHARGE:  cpu time    2.4236: real time    2.4328
    --------------------------------------------
      LOOP:  cpu time   42.6044: real time   43.6482

 eigenvalue-minimisations  :     0
 total energy-change (2. order) :-0.1144657E+01  (-0.8725195E+00)
 number of electron     269.9999992 magnetization      26.1680560
 augmentation part       86.5608725 magnetization      17.7989556

 Free energy of the ion-electron system (eV)
  ---------------------------------------------------
  alpha Z        PSCENC =       798.38614055
  Ewald energy   TEWEN  =    -12901.57693327
  -Hartree energ DENC   =     -2463.03477110
  -exchange      EXHF   =         0.00000000
  -V(xc)+E(xc)   XCENC  =     -1000.93596429
  PAW double counting   =     20264.72087989   -19007.76708723
  entropy T*S    EENTRO =        -0.01732773
  eigenvalues    EBANDS =      1258.10518075
  atomic energy  EATOM  =     12697.67401269
  ---------------------------------------------------
  free energy    TOTEN  =      -354.44313925 eV

  energy without entropy =     -354.42581152  energy(sigma->0) =     -354.43736334


--------------------------------------------------------------------------------------------------------




--------------------------------------- Iteration      1(  16)  ---------------------------------------


    POTLOK:  cpu time    0.3930: real time    0.3930
    SETDIJ:  cpu time    0.4559: real time    0.4669
    TRIAL :  cpu time   30.8231: real time   31.0007
    CORREC:  cpu time    8.4281: real time    8.5859
    CHARGE:  cpu time    2.4119: real time    2.4869
    --------------------------------------------
      LOOP:  cpu time   42.5380: real time   42.9609

 eigenvalue-minimisations  :     0
 total energy-change (2. order) :-0.8722639E+00  (-0.2407809E+00)
 number of electron     269.9999992 magnetization      26.1343534
 augmentation part       87.0119677 magnetization      17.8337761

 Free energy of the ion-electron system (eV)
  ---------------------------------------------------
  alpha Z        PSCENC =       798.38614055
  Ewald energy   TEWEN  =    -12901.57693327
  -Hartree energ DENC   =     -2485.56248508
  -exchange      EXHF   =         0.00000000
  -V(xc)+E(xc)   XCENC  =      -999.91829584
  PAW double counting   =     19742.82723998   -18490.64081315
  entropy T*S    EENTRO =        -0.01764255
  eigenvalues    EBANDS =      1283.51305871
  atomic energy  EATOM  =     12697.67401269
  ---------------------------------------------------
  free energy    TOTEN  =      -355.31540314 eV

  energy without entropy =     -355.29776059  energy(sigma->0) =     -355.30952229


--------------------------------------------------------------------------------------------------------




--------------------------------------- Iteration      1(  17)  ---------------------------------------


    POTLOK:  cpu time    0.3917: real time    0.3917
    SETDIJ:  cpu time    0.4765: real time    0.4765
    TRIAL :  cpu time   31.3306: real time   31.5729
    CORREC:  cpu time    9.3772: real time    9.3927
    CHARGE:  cpu time    2.3823: real time    2.4631
    --------------------------------------------
      LOOP:  cpu time   43.9597: real time   44.2997

 eigenvalue-minimisations  :     0
 total energy-change (2. order) :-0.2415018E+00  (-0.1738755E+00)
 number of electron     269.9999992 magnetization      26.1610115
 augmentation part       87.2819103 magnetization      17.9388037

 Free energy of the ion-electron system (eV)
  ---------------------------------------------------
  alpha Z        PSCENC =       798.38614055
  Ewald energy   TEWEN  =    -12901.57693327
  -Hartree energ DENC   =     -2504.32748190
  -exchange      EXHF   =         0.00000000
  -V(xc)+E(xc)   XCENC  =      -999.09251824
  PAW double counting   =     19631.69054036   -18383.85753071
  entropy T*S    EENTRO =        -0.01907146
  eigenvalues    EBANDS =      1305.56450812
  atomic energy  EATOM  =     12697.67401269
  ---------------------------------------------------
  free energy    TOTEN  =      -355.55690494 eV

  energy without entropy =     -355.53783349  energy(sigma->0) =     -355.55054779


--------------------------------------------------------------------------------------------------------




--------------------------------------- Iteration      1(  18)  ---------------------------------------


    POTLOK:  cpu time    0.3931: real time    0.4002
    SETDIJ:  cpu time    0.4482: real time    0.4482
    TRIAL :  cpu time   30.7480: real time   31.6985
    CORREC:  cpu time    8.5547: real time    8.5966
    CHARGE:  cpu time    2.4573: real time    2.4577
    --------------------------------------------
      LOOP:  cpu time   42.6037: real time   43.6055

 eigenvalue-minimisations  :     0
 total energy-change (2. order) :-0.1738407E+00  (-0.2019758E+00)
 number of electron     269.9999992 magnetization      26.1345336
 augmentation part       87.2327129 magnetization      18.0632634

 Free energy of the ion-electron system (eV)
  ---------------------------------------------------
  alpha Z        PSCENC =       798.38614055
  Ewald energy   TEWEN  =    -12901.57693327
  -Hartree energ DENC   =     -2515.49146364
  -exchange      EXHF   =         0.00000000
  -V(xc)+E(xc)   XCENC  =      -998.47855416
  PAW double counting   =     19572.68702100   -18327.71834215
  entropy T*S    EENTRO =        -0.01836448
  eigenvalues    EBANDS =      1318.80644477
  atomic energy  EATOM  =     12697.67401269
  ---------------------------------------------------
  free energy    TOTEN  =      -355.73074565 eV

  energy without entropy =     -355.71238118  energy(sigma->0) =     -355.72462416


--------------------------------------------------------------------------------------------------------




--------------------------------------- Iteration      1(  19)  ---------------------------------------


    POTLOK:  cpu time    0.3921: real time    0.3921
    SETDIJ:  cpu time    0.4839: real time    0.4839
    TRIAL :  cpu time   30.7490: real time   31.0753
    CORREC:  cpu time    8.4960: real time    8.5607
    CHARGE:  cpu time    2.4612: real time    2.4702
    --------------------------------------------
      LOOP:  cpu time   42.5853: real time   42.9866

 eigenvalue-minimisations  :     0
 total energy-change (2. order) :-0.2014797E+00  (-0.6618038E-01)
 number of electron     269.9999992 magnetization      26.1135953
 augmentation part       87.0423665 magnetization      18.0995443

 Free energy of the ion-electron system (eV)
  ---------------------------------------------------
  alpha Z        PSCENC =       798.38614055
  Ewald energy   TEWEN  =    -12901.57693327
  -Hartree energ DENC   =     -2510.40987445
  -exchange      EXHF   =         0.00000000
  -V(xc)+E(xc)   XCENC  =      -998.32167983
  PAW double counting   =     19514.29616843   -18268.89829235
  entropy T*S    EENTRO =        -0.01936521
  eigenvalues    EBANDS =      1312.93659738
  atomic energy  EATOM  =     12697.67401269
  ---------------------------------------------------
  free energy    TOTEN  =      -355.93222532 eV

  energy without entropy =     -355.91286011  energy(sigma->0) =     -355.92577025


--------------------------------------------------------------------------------------------------------




--------------------------------------- Iteration      1(  20)  ---------------------------------------


    POTLOK:  cpu time    0.3919: real time    0.3921
    SETDIJ:  cpu time    0.4940: real time    0.5045
    TRIAL :  cpu time   31.0056: real time   31.8889
    CORREC:  cpu time    8.5231: real time    8.6017
    CHARGE:  cpu time    2.4222: real time    2.4757
    --------------------------------------------
      LOOP:  cpu time   42.8544: real time   43.9042

 eigenvalue-minimisations  :     0
 total energy-change (2. order) :-0.6599507E-01  (-0.4791380E-01)
 number of electron     269.9999992 magnetization      26.1605196
 augmentation part       86.8434796 magnetization      18.1496282

 Free energy of the ion-electron system (eV)
  ---------------------------------------------------
  alpha Z        PSCENC =       798.38614055
  Ewald energy   TEWEN  =    -12901.57693327
  -Hartree energ DENC   =     -2500.41024550
  -exchange      EXHF   =         0.00000000
  -V(xc)+E(xc)   XCENC  =      -998.55648946
  PAW double counting   =     19493.08788489   -18245.74277406
  entropy T*S    EENTRO =        -0.01912010
[...]
   45        0.024   0.027   2.371   2.422
   46       -0.026  -0.027  -2.146  -2.199
   47        0.016   0.028   2.364   2.408
   48        0.013   0.021   2.346   2.380
   49       -0.009  -0.005  -2.255  -2.268
   50        0.018   0.018   2.366   2.402
   51        0.015   0.012   2.339   2.365
   52       -0.007  -0.009  -2.268  -2.284
   53        0.020   0.014   2.366   2.400
   54        0.025   0.024   2.387   2.436
--------------------------------------------------
tot         -0.015  -0.152  26.317  26.150
 
    FORLOC:  cpu time    0.0582: real time    0.0582
    FORNL :  cpu time   43.8735: real time   44.2315
    STRESS:  cpu time   58.4022: real time   59.5821
    FORCOR:  cpu time    0.4387: real time    0.4388
    OFIELD:  cpu time    0.0024: real time    0.0024

  FORCE on cell =-STRESS in cart. coord.  units (eV):
  Direction    XX          YY          ZZ          XY          YZ          ZX
  --------------------------------------------------------------------------------------
  Alpha Z   798.38614   798.38614   798.38614
  Ewald   -4053.61603 -4053.61603 -4794.40593    -0.00000    -0.00000    -0.00000
  Hartree  1084.62588  1082.53237   334.18177     0.08452     0.15390    -0.13601
  E(xc)   -1141.65663 -1141.24995 -1140.14280    -0.04202    -0.02986     0.02780
  Local     367.75679   373.10600  1901.89020    -0.29342    -0.48529     0.42416
  n-local  -170.09135  -168.95497  -176.27403    -0.16142    -0.08042     0.06550
  augment   784.90339   783.14728   768.78152     0.13933     0.17061    -0.11759
  Kinetic  2335.96448  2332.80444  2311.09077     0.38367     0.45106    -0.32744
  Fock        0.00000     0.00000     0.00000     0.00000     0.00000     0.00000
  -------------------------------------------------------------------------------------
  Total       6.27268     6.15528     3.50764     0.11067     0.18000    -0.06359
  in kB      14.15662    13.89167     7.91629     0.24977     0.40625    -0.14351
  external pressure =       11.99 kB  Pullay stress =        0.00 kB


 VOLUME and BASIS-vectors are now :
 -----------------------------------------------------------------------------
  energy-cutoff  :      404.80
  volume of cell :      709.91
      direct lattice vectors                 reciprocal lattice vectors
     8.250148166  0.000000000  0.000000000     0.121209944  0.000000000  0.000000000
     0.000000000  8.250148166  0.000000000     0.000000000  0.121209944  0.000000000
     0.000000000  0.000000000 10.429911392     0.000000000  0.000000000  0.095878092

  length of vectors
     8.250148166  8.250148166 10.429911392     0.121209944  0.121209944  0.095878092


 FORCES acting on ions:
    Electron-Ion                     Ewald-Force                    Non-Local-Force
 -----------------------------------------------------------------------------------------------
   -.102E+00 0.314E-01 0.585E-01   -.239E-08 -.239E-08 -.210E-08   0.110E+00 -.759E-02 -.332E-01
   -.168E+00 -.768E-01 0.188E-01   -.239E-08 -.239E-08 0.171E-08   0.859E-01 0.783E-01 0.196E-01
   -.126E-01 -.968E-03 -.308E-01   -.239E-08 -.239E-08 0.861E-08   -.458E-01 0.353E-01 -.215E-01
   -.139E+00 0.902E-01 0.175E-01   -.239E-08 -.802E-09 -.210E-08   0.710E-01 -.963E-01 -.370E-01
   -.161E+00 0.140E+00 -.804E-01   -.239E-08 -.802E-09 0.171E-08   0.799E-01 -.108E+00 0.561E-01
   0.100E-01 0.819E-03 0.214E-01   -.239E-08 -.802E-09 0.861E-08   -.647E-02 0.179E-02 -.806E-03
   -.903E-01 -.113E+00 0.139E+00   -.239E-08 0.631E-08 -.210E-08   0.108E+00 0.998E-01 -.880E-02
   0.903E-02 -.206E-01 -.650E-01   -.239E-08 0.631E-08 0.171E-08   0.113E-01 0.975E-02 -.663E-02
   -.453E-01 -.396E-01 -.445E-01   -.239E-08 0.631E-08 0.861E-08   0.274E-03 -.111E-01 -.528E-02
   -.759E-01 0.587E-01 0.572E-01   -.802E-09 -.239E-08 -.210E-08   -.212E-01 0.794E-01 -.622E-01
   0.264E-01 -.921E-01 -.661E-02   -.802E-09 -.239E-08 0.171E-08   -.220E-02 0.181E+00 0.661E-01
   0.243E-01 0.191E-01 -.167E-01   -.803E-09 -.239E-08 0.861E-08   0.238E-01 -.110E-01 -.263E-01
   -.212E-01 0.121E+00 0.241E-01   -.802E-09 -.802E-09 -.210E-08   0.105E-01 -.207E+00 -.882E-01
   -.888E-02 0.132E+00 -.789E-01   -.802E-09 -.802E-09 0.171E-08   -.920E-03 -.202E+00 0.103E+00
   -.225E-01 0.159E-01 0.163E-01   -.803E-09 -.802E-09 0.861E-08   0.308E-02 0.241E-01 0.406E-02
   0.987E-01 -.138E+00 0.111E+00   -.802E-09 0.631E-08 -.210E-08   -.897E-01 0.926E-01 -.483E-01
   -.710E-02 -.149E-01 -.289E-01   -.802E-09 0.631E-08 0.171E-08   0.340E-03 0.914E-02 0.311E-01
   0.433E-01 -.450E-01 -.457E-01   -.803E-09 0.631E-08 0.861E-08   0.913E-02 -.161E-01 -.943E-02
   0.179E+00 -.117E+00 0.757E-02   0.631E-08 -.239E-08 -.210E-08   -.877E-01 0.101E+00 -.449E-01
   0.153E+00 -.839E-01 -.514E-01   0.631E-08 -.239E-08 0.171E-08   -.840E-01 0.836E-01 0.513E-01
   0.692E-02 -.319E-01 0.150E-01   0.631E-08 -.239E-08 0.861E-08   0.871E-02 0.109E-01 0.103E-01
   0.163E+00 0.944E-01 0.400E-01   0.631E-08 -.802E-09 -.210E-08   -.946E-01 -.103E+00 -.768E-01
   0.172E+00 0.999E-01 -.322E-01   0.631E-08 -.802E-09 0.171E-08   -.917E-01 -.101E+00 0.473E-01
   0.533E-02 0.230E-02 -.154E-01   0.631E-08 -.802E-09 0.861E-08   0.128E-01 -.266E-02 0.454E-01
   -.136E-01 0.243E-01 0.751E-01   0.631E-08 0.631E-08 -.210E-08   -.316E-02 -.102E-01 -.386E-02
   -.846E-02 -.683E-02 -.147E+00   0.631E-08 0.631E-08 0.171E-08   -.322E-02 -.127E-02 0.363E-01
   0.175E-02 0.301E-01 0.291E-01   0.631E-08 0.631E-08 0.861E-08   -.249E-02 -.630E-02 0.157E-02
   0.511E+00 -.789E-01 -.998E-01   -.169E-07 -.169E-07 -.180E-07   -.176E+00 0.542E-01 0.143E+00
   0.938E-02 -.435E-01 -.203E+00   -.169E-07 -.169E-07 -.170E-08   -.184E-01 -.634E-02 0.236E+00
   0.482E-02 0.265E+00 0.263E+00   -.169E-07 -.169E-07 0.115E-07   -.165E-02 -.149E+00 -.314E+00
   -.502E-01 0.228E+00 0.157E+00   -.169E-07 0.802E-09 -.180E-07   0.442E-01 -.934E-01 -.157E+00
   0.444E-01 0.670E-01 0.101E+00   -.169E-07 0.802E-09 -.170E-08   -.360E-01 0.125E-02 -.153E+00
   0.435E-01 -.264E+00 -.672E-01   -.169E-07 0.802E-09 0.115E-07   -.448E-01 0.168E+00 0.920E-01
   -.384E-01 -.291E+00 -.310E+00   -.169E-07 0.130E-07 -.180E-07   0.442E-01 0.134E+00 0.439E+00
   0.212E-01 -.184E-01 -.203E+00   -.169E-07 0.130E-07 -.170E-08   -.141E-01 0.152E-01 0.218E+00
   -.436E-01 0.628E-01 0.360E+00   -.169E-07 0.130E-07 0.115E-07   0.382E-01 -.342E-01 -.369E+00
   -.563E+00 0.187E-01 0.340E-01   0.802E-09 -.169E-07 -.180E-07   0.205E+00 -.233E-01 -.438E-01
   -.331E-01 -.310E-01 -.236E+00   0.802E-09 -.169E-07 -.170E-08   0.661E-01 0.549E-01 0.238E+00
   -.103E+00 -.117E+00 0.227E+00   0.802E-09 -.169E-07 0.115E-07   0.114E+00 0.111E+00 -.248E+00
   0.180E-01 0.287E+00 -.266E-01   0.802E-09 0.802E-09 -.180E-07   -.204E-01 -.124E+00 0.348E-01
   -.730E-01 0.577E-01 -.950E-02   0.802E-09 0.802E-09 -.170E-08   0.976E-01 -.720E-01 -.302E-01
   -.158E+00 0.139E+00 -.646E-02   0.802E-09 0.802E-09 0.115E-07   0.153E+00 -.131E+00 0.285E-01
   0.713E-01 -.272E+00 0.136E+00   0.802E-09 0.130E-07 -.180E-07   -.236E-01 0.124E+00 -.162E+00
   -.650E-01 -.191E-01 0.612E-01   0.802E-09 0.130E-07 -.170E-08   0.228E-01 -.386E-02 -.675E-01
   0.240E+00 -.158E-01 -.425E-01   0.802E-09 0.130E-07 0.115E-07   -.106E+00 -.191E-03 0.303E-01
   0.740E-01 -.874E-02 -.457E-01   0.130E-07 -.169E-07 -.180E-07   -.470E-01 0.999E-02 0.647E-01
   0.167E-01 -.172E-01 0.118E+00   0.130E-07 -.169E-07 -.170E-08   -.459E-01 0.472E-01 -.165E+00
   0.107E+00 -.124E+00 -.964E-01   0.130E-07 -.169E-07 0.115E-07   -.118E+00 0.120E+00 0.160E+00
   0.443E-01 -.169E+00 -.173E-02   0.130E-07 0.802E-09 -.180E-07   -.285E-01 0.208E+00 -.941E-02
   0.289E-01 -.500E-01 -.918E-02   0.130E-07 0.802E-09 -.170E-08   -.695E-01 -.191E-01 -.554E-01
   0.113E+00 0.442E-01 -.150E-01   0.130E-07 0.802E-09 0.115E-07   -.118E+00 -.661E-01 0.816E-01
   -.157E-01 0.183E+00 0.103E+00   0.130E-07 0.130E-07 -.180E-07   -.372E-01 -.193E+00 -.106E+00
   0.451E-01 0.790E-01 0.493E-01   0.130E-07 0.130E-07 -.170E-08   -.415E-02 -.564E-01 -.107E+00
   -.272E+00 0.853E-01 -.212E-01   0.130E-07 0.130E-07 0.115E-07   0.126E+00 -.839E-01 0.957E-02
 -----------------------------------------------------------------------------------------------
   -.193E-02 0.845E-01 0.213E+00   -.614E-13 -.142E-13 0.128E-13   0.196E-02 -.845E-01 -.213E+00
 
 
 POSITION                                       TOTAL-FORCE (eV/Angst)
 -----------------------------------------------------------------------------------
      0.00000      0.00000      0.00000        -0.001108      0.024510      0.027998
      0.00000      0.00000      3.47664        -0.089479     -0.004766      0.036046
      0.00000      0.00000      6.95327        -0.054293      0.030781     -0.049210
      0.00000      2.75005      0.00000        -0.073433      0.001769     -0.015723
      0.00000      2.75005      3.47664        -0.088015      0.040558     -0.030699
      0.00000      2.75005      6.95327         0.004255      0.002344      0.020961
      0.00000      5.50010      0.00000         0.008882     -0.022026      0.130401
      0.00000      5.50010      3.47664         0.019827     -0.011633     -0.071564
      0.00000      5.50010      6.95327        -0.044269     -0.049330     -0.048169
      2.75005      0.00000      0.00000        -0.095855      0.131751      0.000617
      2.75005      0.00000      3.47664         0.024527      0.073887      0.052801
      2.75005      0.00000      6.95327         0.045713      0.007785     -0.039448
      2.75005      2.75005      0.00000        -0.011860     -0.068376     -0.055857
      2.75005      2.75005      3.47664        -0.009589     -0.053098      0.013973
      2.75005      2.75005      6.95327        -0.020174      0.038656      0.020281
      2.75005      5.50010      0.00000         0.016424     -0.053504      0.066223
      2.75005      5.50010      3.47664        -0.006836     -0.006499     -0.000660
      2.75005      5.50010      6.95327         0.051407     -0.059516     -0.053344
      5.50010      0.00000      0.00000         0.099308     -0.025326     -0.032804
      5.50010      0.00000      3.47664         0.076340     -0.007135     -0.005964
      5.50010      0.00000      6.95327         0.015282     -0.022322      0.024676
      5.50010      2.75005      0.00000         0.076869      0.000069     -0.029060
      5.50010      2.75005      3.47664         0.088353      0.007009      0.010155
      5.50010      2.75005      6.95327         0.017416     -0.000165      0.026215
      5.50010      5.50010      0.00000        -0.016929      0.015471      0.071967
      5.50010      5.50010      3.47664        -0.011789     -0.008004     -0.115502
      5.50010      5.50010      6.95327        -0.000862      0.024834      0.030941
      1.37502      1.37502      1.73832         0.347545     -0.028906      0.041278
      1.37502      1.37502      5.21496        -0.008082     -0.047287      0.031555
      1.37502      1.37502      8.69159         0.003817      0.122252     -0.047919
      1.37502      4.12507      1.73832        -0.006917      0.134907      0.003115
      1.37502      4.12507      5.21496         0.008881      0.067407     -0.042876
      1.37502      4.12507      8.69159        -0.000464     -0.098589      0.019507
      1.37502      6.87512      1.73832         0.005625     -0.158483      0.123279
      1.37502      6.87512      5.21496         0.007813     -0.004556      0.011308
      1.37502      6.87512      8.69159        -0.006673      0.027924     -0.003264
      4.12507      1.37502      1.73832        -0.369420     -0.002978     -0.009439
      4.12507      1.37502      5.21496         0.031818      0.023562      0.001376
      4.12507      1.37502      8.69159         0.008797     -0.006914     -0.019822
      4.12507      4.12507      1.73832        -0.001632      0.163738      0.005869
      4.12507      4.12507      5.21496         0.023742     -0.012558     -0.033463
      4.12507      4.12507      8.69159        -0.007960      0.011102      0.015101
      4.12507      6.87512      1.73832         0.048334     -0.147644     -0.023960
      4.12507      6.87512      5.21496        -0.040779     -0.023576      0.001239
      4.12507      6.87512      8.69159         0.135379     -0.016523     -0.014840
      6.87512      1.37502      1.73832         0.028617      0.000713      0.017814
      6.87512      1.37502      5.21496        -0.029004      0.030046     -0.036260
      6.87512      1.37502      8.69159        -0.009720     -0.005877      0.051437
      6.87512      4.12507      1.73832         0.015716      0.037155     -0.012332
      6.87512      4.12507      5.21496        -0.039816     -0.069195     -0.057982
      6.87512      4.12507      8.69159        -0.003335     -0.020828      0.059804
      6.87512      6.87512      1.73832        -0.052384     -0.008630     -0.000804
      6.87512      6.87512      5.21496         0.039221      0.023465     -0.050586
      6.87512      6.87512      8.69159        -0.149229      0.002547     -0.014385
 -----------------------------------------------------------------------------------
    total drift:                                0.000026     -0.000002      0.000057


--------------------------------------------------------------------------------------------------------



  FREE ENERGIE OF THE ION-ELECTRON SYSTEM (eV)
  ---------------------------------------------------
  free  energy   TOTEN  =      -356.18033699 eV

  energy  without entropy=     -356.16187619  energy(sigma->0) =     -356.17418339
 


--------------------------------------------------------------------------------------------------------


    POTLOK:  cpu time    0.8619: real time    0.8619


--------------------------------------------------------------------------------------------------------


     LOOP+:  cpu time 3418.4193: real time 3485.7667
    4ORBIT:  cpu time    0.0000: real time    0.0000
 


 total charge     
 
# of ion       s       p       d       tot
------------------------------------------
    1        0.405   0.429   0.000   0.834
    2        0.405   0.428   0.000   0.833
    3        0.404   0.429   0.000   0.834
    4        0.405   0.428   0.000   0.833
    5        0.405   0.428   0.000   0.833
    6        0.404   0.428   0.000   0.832
    7        0.405   0.427   0.000   0.832
    8        0.405   0.426   0.000   0.831
    9        0.404   0.430   0.000   0.834
   10        0.405   0.428   0.000   0.833
   11        0.405   0.428   0.000   0.833
   12        0.405   0.428   0.000   0.834
   13        0.405   0.428   0.000   0.833
   14        0.405   0.428   0.000   0.833
   15        0.405   0.428   0.000   0.833
   16        0.405   0.427   0.000   0.832
   17        0.405   0.425   0.000   0.831
   18        0.404   0.430   0.000   0.834
   19        0.405   0.428   0.000   0.833
   20        0.405   0.428   0.000   0.833
   21        0.404   0.428   0.000   0.832
   22        0.405   0.428   0.000   0.833
   23        0.405   0.428   0.000   0.833
   24        0.404   0.429   0.000   0.832
   25        0.405   0.425   0.000   0.831
   26        0.405   0.426   0.000   0.831
   27        0.404   0.429   0.000   0.833
   28        0.337   0.355   5.123   5.815
   29        0.333   0.348   5.144   5.825
   30        0.334   0.355   5.129   5.818
   31        0.334   0.354   5.133   5.821
   32        0.333   0.351   5.136   5.820
   33        0.333   0.356   5.126   5.816
   34        0.335   0.352   5.130   5.818
   35        0.331   0.354   5.133   5.818
   36        0.334   0.353   5.136   5.823
   37        0.337   0.356   5.121   5.815
   38        0.334   0.349   5.140   5.823
   39        0.332   0.349   5.145   5.826
   40        0.335   0.353   5.131   5.819
   41        0.333   0.352   5.135   5.820
   42        0.332   0.353   5.136   5.821
   43        0.335   0.354   5.130   5.819
   44        0.333   0.351   5.137   5.820
   45        0.333   0.356   5.127   5.817
   46        0.332   0.355   5.139   5.826
   47        0.334   0.353   5.131   5.818
   48        0.332   0.353   5.134   5.819
   49        0.332   0.353   5.136   5.822
   50        0.334   0.350   5.139   5.823
   51        0.333   0.350   5.141   5.824
   52        0.332   0.355   5.133   5.820
   53        0.333   0.348   5.141   5.823
   54        0.334   0.354   5.130   5.818
--------------------------------------------------
tot         19.937  21.076 138.617 179.629
 


 magnetization (x)
 
# of ion       s       p       d       tot
------------------------------------------
    1       -0.001   0.001   0.000  -0.000
    2       -0.005  -0.008   0.000  -0.013
    3       -0.017  -0.029   0.000  -0.045
    4       -0.004  -0.006   0.000  -0.011
    5       -0.005  -0.009   0.000  -0.013
    6       -0.021  -0.036   0.000  -0.057
    7        0.004   0.008   0.000   0.012
    8       -0.000   0.000   0.000   0.000
    9       -0.017  -0.030   0.000  -0.047
   10       -0.005  -0.009   0.000  -0.013
   11       -0.009  -0.016   0.000  -0.025
   12       -0.016  -0.032   0.000  -0.048
   13       -0.008  -0.015   0.000  -0.023
   14       -0.009  -0.018   0.000  -0.027
   15       -0.020  -0.038   0.000  -0.058
   16        0.003   0.005   0.000   0.008
   17       -0.002  -0.003   0.000  -0.005
   18       -0.018  -0.027   0.000  -0.045
   19       -0.004  -0.006   0.000  -0.010
   20       -0.005  -0.009   0.000  -0.014
   21       -0.021  -0.035   0.000  -0.056
   22       -0.005  -0.007   0.000  -0.013
   23       -0.005  -0.007   0.000  -0.012
   24       -0.022  -0.038   0.000  -0.060
   25        0.001   0.001   0.000   0.002
   26       -0.000  -0.001   0.000  -0.001
   27       -0.021  -0.036   0.000  -0.057
   28        0.026   0.018   2.411   2.455
   29        0.020   0.014   2.323   2.358
   30        0.027   0.026   2.386   2.438
   31       -0.017  -0.019  -2.271  -2.307
   32        0.019   0.019   2.371   2.409
   33        0.024   0.028   2.377   2.430
   34       -0.023  -0.015  -2.437  -2.476
   35        0.012   0.024   2.230   2.266
   36       -0.030  -0.024  -2.289  -2.344
   37        0.024   0.022   2.354   2.399
   38        0.019   0.019   2.328   2.366
   39        0.015   0.013   2.284   2.312
   40       -0.019  -0.016  -2.351  -2.386
   41        0.017   0.023   2.357   2.396
   42        0.014   0.016   2.335   2.365
   43       -0.017  -0.020  -2.326  -2.363
   44        0.018   0.018   2.365   2.401
   45        0.024   0.027   2.371   2.422
   46       -0.026  -0.027  -2.146  -2.199
   47        0.016   0.028   2.364   2.408
   48        0.013   0.021   2.346   2.380
   49       -0.009  -0.005  -2.255  -2.268
   50        0.018   0.018   2.366   2.402
   51        0.015   0.012   2.339   2.365
   52       -0.007  -0.009  -2.268  -2.284
   53        0.020   0.014   2.366   2.400
   54        0.025   0.024   2.387   2.436
--------------------------------------------------
tot         -0.015  -0.152  26.317  26.150
 

 total amount of memory used by VASP MPI-rank0  1673589. kBytes
=======================================================================

   base      :      30000. kBytes
   nonl-proj :      51477. kBytes
   fftplans  :      31580. kBytes
   grid      :      21385. kBytes
   one-center:        435. kBytes
   wavefun   :    1538712. kBytes
 
  
  
 General timing and accounting informations for this job:
 ========================================================
  
                  Total CPU time used (sec):     3477.872
                            User time (sec):     3438.522
                          System time (sec):       39.350
                         Elapsed time (sec):     3548.947
  
                   Maximum memory used (kb):     1895636.
                   Average memory used (kb):           0.
  
                          Minor page faults:       942319
                          Major page faults:           14
                 Voluntary context switches:         3200
