   36   36    1    2
  0.1314651E+02  0.8250148E-09  0.8250148E-09  0.6953274E-09  0.2000000E-15
  1.000000000000000E-004
  CAR 
 AlMn_pv                                 
    180     52    108
 
  0.0000000E+00  0.0000000E+00  0.0000000E+00  0.6666667E-02
    1       -2.517046     -2.518835   1.000000   1.000000
    2       -0.374925     -0.361557   1.000000   1.000000
    3       -0.343146     -0.340784   1.000000   1.000000
    4       -0.323372     -0.337268   1.000000   1.000000
    5       -0.291966     -0.304020   1.000000   1.000000
    6       -0.120240     -0.111062   1.000000   1.000000
    7        1.372203      1.361571   1.000000   1.000000
    8        1.383226      1.373164   1.000000   1.000000
    9        1.397591      1.385721   1.000000   1.000000
   10        1.403934      1.405715   1.000000   1.000000
   11        1.431772      1.436494   1.000000   1.000000
   12        1.557156      1.542670   1.000000   1.000000
   13        1.562973      1.564942   1.000000   1.000000
   14        1.624908      1.619121   1.000000   1.000000
   15        1.646127      1.627978   1.000000   1.000000
   16        2.721915      2.719097   1.000000   1.000000
   17        2.748164      2.733760   1.000000   1.000000
   18        2.856200      2.834895   1.000000   1.000000
   19        2.862247      2.850767   1.000000   1.000000
   20        3.458750      3.459657   1.000000   1.000000
   21        3.553765      3.520673   1.000000   1.000000
   22        3.576123      3.535037   1.000000   1.000000
   23        3.638811      3.616384   1.000000   1.000000
   24        4.110962      4.098966   1.000000   1.000000
   25        4.157288      4.131134   1.000000   1.000000
   26        4.415479      4.383624   1.000000   1.000000
   27        4.512780      4.441855   1.000000   1.000000
   28        4.552894      4.513882   1.000000   1.000000
   29        4.584683      4.560913   1.000000   1.000000
   30        4.619848      4.593589   1.000000   1.000000
   31        4.647035      4.609106   1.000000   1.000000
   32        4.688641      4.696187   1.000000   1.000000
   33        4.726018      4.714339   1.000000   1.000000
   34        4.773877      4.715493   1.000000   1.000000
   35        4.836827      4.750951   1.000000   1.000000
   36        4.913764      4.915161   1.000000   1.000000
   37        4.951241      4.933808   1.000000   1.000000
   38        4.996374      4.966816   1.000000   1.000000
   39        5.129059      5.065424   1.000000   1.000000
   40        5.204888      5.085710   1.000000   1.000000
   41        5.320717      5.287062   1.000000   1.000000
   42        5.338594      5.338056   1.000000   1.000000
   43        5.352667      5.356810   1.000000   1.000000
   44        5.386928      5.397288   1.000000   1.000000
   45        5.422236      5.417181   1.000000   1.000000
   46        5.441890      5.450767   1.000000   1.000000
   47        5.517095      5.468443   1.000000   1.000000
   48        5.569166      5.504612   1.000000   1.000000
   49        5.590978      5.578824   1.000000   1.000000
   50        5.640882      5.588614   1.000000   1.000000
   51        5.669738      5.605087   1.000000   1.000000
   52        5.701822      5.638043   1.000000   1.000000
   53        5.715385      5.638232   1.000000   1.000000
   54        5.736653      5.735755   1.000000   1.000000
   55        5.809197      5.795583   1.000000   1.000000
   56        5.927178      5.869873   1.000000   1.000000
   57        6.007209      5.912699   1.000000   1.000000
   58        6.168962      5.925899   1.000000   1.000000
   59        6.231107      5.978285   1.000000   1.000000
   60        6.326429      6.129138   1.000000   1.000000
   61        6.343508      6.219835   1.000000   1.000000
   62        6.375028      6.284698   1.000000   1.000000
   63        6.382739      6.333213   1.000000   1.000000
   64        6.454255      6.369984   1.000000   1.000000
   65        6.484126      6.411348   1.000000   1.000000
   66        6.553572      6.424449   1.000000   1.000000
   67        6.561239      6.510753   1.000000   1.000000
   68        6.566287      6.554641   1.000000   1.000000
   69        6.607456      6.578795   1.000000   1.000000
   70        6.626229      6.585742   1.000000   1.000000
   71        6.721163      6.624686   1.000000   1.000000
   72        6.742762      6.658997   1.000000   1.000000
   73        6.755293      6.693230   1.000000   1.000000
   74        6.808529      6.705477   1.000000   1.000000
   75        6.867198      6.739227   1.000000   1.000000
   76        6.929614      6.754671   1.000000   1.000000
   77        7.053908      6.774592   1.000006   1.000000
   78        7.192899      6.790067   1.000350   1.000000
   79        7.211304      6.847557   1.000548   1.000000
   80        7.293042      6.905954   1.003262   1.000000
   81        7.364631      6.932292   1.011084   1.000000
   82        7.364878      7.046948   1.011090   1.000005
   83        7.401486      7.109939   1.018079   1.000036
   84        7.506885      7.290467   1.035174   1.003097
   85        7.528449      7.309844   1.031281   1.004487
   86        7.562293      7.367722   1.012552   1.011610
   87        7.623966      7.395103   0.919247   1.016732
   88        7.729626      7.419702   0.558316   1.022199
   89        7.782764      7.517167   0.337591   1.033975
   90        7.809049      7.580290   0.238027   0.993999
   91        7.959589      7.706393  -0.031578   0.653204
   92        7.988240      7.826146  -0.035458   0.181129
   93        8.065129      7.878849  -0.022641   0.048583
   94        8.081540      7.900987  -0.019028   0.013218
   95        8.152657      7.951747  -0.006885  -0.028958
   96        8.239214      8.080247  -0.001690  -0.020043
   97        8.300930      8.112162  -0.000292  -0.012953
   98        8.363641      8.166606  -0.000057  -0.005429
   99        8.577080      8.222608  -0.000001  -0.002567
  100        8.638437      8.295853  -0.000000  -0.000498
  101        8.642257      8.504975  -0.000000  -0.000010
  102        8.741890      8.507016  -0.000000  -0.000004
  103        8.802373      8.508400  -0.000000  -0.000003
  104        8.846488      8.592363  -0.000000  -0.000000
  105        8.869073      8.705990  -0.000000  -0.000000
  106        8.875994      8.849279  -0.000000  -0.000000
  107        8.899327      8.908241  -0.000000  -0.000000
  108        8.921108      8.942529  -0.000000  -0.000000
 
  0.2000000E+00  0.0000000E+00  0.0000000E+00  0.1333333E-01
    1       -2.426599     -2.428284   1.000000   1.000000
    2       -1.100266     -1.102248   1.000000   1.000000
    3       -0.260752     -0.258546   1.000000   1.000000
    4       -0.241116     -0.248155   1.000000   1.000000
    5       -0.054319     -0.045565   1.000000   1.000000
    6        0.570790      0.567294   1.000000   1.000000
    7        0.887484      0.890116   1.000000   1.000000
    8        0.935078      0.928232   1.000000   1.000000
    9        0.944239      0.937857   1.000000   1.000000
   10        1.446260      1.452909   1.000000   1.000000
   11        1.472624      1.467847   1.000000   1.000000
   12        1.492877      1.470387   1.000000   1.000000
   13        1.931514      1.922854   1.000000   1.000000
   14        2.316046      2.306524   1.000000   1.000000
   15        2.330702      2.314518   1.000000   1.000000
   16        2.336523      2.330240   1.000000   1.000000
   17        2.351398      2.336591   1.000000   1.000000
   18        2.835516      2.812151   1.000000   1.000000
   19        3.252279      3.239056   1.000000   1.000000
   20        3.278783      3.253716   1.000000   1.000000
   21        3.600980      3.581675   1.000000   1.000000
   22        3.636670      3.609840   1.000000   1.000000
   23        3.745247      3.734210   1.000000   1.000000
   24        4.087013      4.071621   1.000000   1.000000
   25        4.127260      4.102211   1.000000   1.000000
   26        4.328868      4.297181   1.000000   1.000000
   27        4.372383      4.335432   1.000000   1.000000
   28        4.458823      4.390225   1.000000   1.000000
   29        4.575219      4.521377   1.000000   1.000000
   30        4.580888      4.571176   1.000000   1.000000
   31        4.607369      4.579418   1.000000   1.000000
   32        4.625830      4.588150   1.000000   1.000000
   33        4.674499      4.640135   1.000000   1.000000
   34        4.722417      4.659162   1.000000   1.000000
   35        4.850503      4.829112   1.000000   1.000000
   36        4.902319      4.897644   1.000000   1.000000
   37        5.052137      4.989117   1.000000   1.000000
   38        5.066682      5.041286   1.000000   1.000000
   39        5.079015      5.042966   1.000000   1.000000
   40        5.092210      5.103404   1.000000   1.000000
   41        5.190676      5.130398   1.000000   1.000000
   42        5.310901      5.292222   1.000000   1.000000
   43        5.343398      5.346452   1.000000   1.000000
   44        5.372273      5.371225   1.000000   1.000000
   45        5.434304      5.427083   1.000000   1.000000
   46        5.446532      5.429142   1.000000   1.000000
   47        5.518734      5.476912   1.000000   1.000000
   48        5.569366      5.521074   1.000000   1.000000
   49        5.606682      5.579239   1.000000   1.000000
   50        5.648139      5.596152   1.000000   1.000000
   51        5.701253      5.643683   1.000000   1.000000
   52        5.730088      5.665173   1.000000   1.000000
   53        5.774071      5.742336   1.000000   1.000000
   54        5.794824      5.750991   1.000000   1.000000
   55        5.916530      5.832874   1.000000   1.000000
   56        5.948717      5.891860   1.000000   1.000000
   57        6.029447      5.937547   1.000000   1.000000
   58        6.155991      5.961897   1.000000   1.000000
   59        6.227744      5.983446   1.000000   1.000000
   60        6.274021      6.092816   1.000000   1.000000
   61        6.312411      6.223908   1.000000   1.000000
   62        6.315416      6.249052   1.000000   1.000000
   63        6.335983      6.313791   1.000000   1.000000
   64        6.423247      6.327341   1.000000   1.000000
   65        6.437226      6.364463   1.000000   1.000000
   66        6.476890      6.391474   1.000000   1.000000
   67        6.525569      6.441770   1.000000   1.000000
   68        6.526264      6.508655   1.000000   1.000000
   69        6.605033      6.563866   1.000000   1.000000
   70        6.681425      6.571337   1.000000   1.000000
   71        6.695415      6.612668   1.000000   1.000000
   72        6.703709      6.630860   1.000000   1.000000
   73        6.778392      6.701632   1.000000   1.000000
   74        6.824319      6.716385   1.000000   1.000000
   75        6.887767      6.721994   1.000000   1.000000
   76        6.922352      6.752528   1.000000   1.000000
   77        7.060157      6.800145   1.000008   1.000000
   78        7.196815      6.829589   1.000386   1.000000
   79        7.208142      6.854035   1.000506   1.000000
   80        7.275068      6.884582   1.002274   1.000000
   81        7.322767      6.931429   1.005641   1.000000
   82        7.342258      6.942080   1.007847   1.000000
   83        7.425476      7.081696   1.023523   1.000015
   84        7.425765      7.157583   1.023554   1.000137
   85        7.503080      7.275976   1.035380   1.002324
   86        7.576146      7.405825   0.998871   1.019060
   87        7.633941      7.434038   0.895478   1.025479
   88        7.749166      7.480003   0.475475   1.034273
   89        7.808056      7.528868   0.241494   1.031130
   90        7.879715      7.567312   0.047103   1.007923
   91        7.977542      7.709331  -0.034952   0.641731
   92        8.004304      7.832120  -0.034592   0.162948
   93        8.010836      7.894607  -0.033804   0.022145
   94        8.100974      7.949316  -0.014933  -0.027885
   95        8.134790      7.990679  -0.009190  -0.035444
   96        8.232175      8.073734  -0.001491  -0.020745
   97        8.275690      8.092774  -0.000551  -0.016575
   98        8.299412      8.121247  -0.000303  -0.011326
   99        8.384532      8.263307  -0.000029  -0.001929
  100        8.480518      8.272260  -0.000001  -0.000601
  101        8.610610      8.358054  -0.000000  -0.000118
  102        8.653251      8.405623  -0.000000  -0.000020
  103        8.728658      8.489640  -0.000000  -0.000005
  104        8.748719      8.536942  -0.000000  -0.000001
  105        8.775381      8.727263  -0.000000  -0.000000
  106        8.942019      8.891550  -0.000000  -0.000000
  107        8.956918      8.985505  -0.000000  -0.000000
  108        9.022327      9.027259  -0.000000  -0.000000
 
  0.4000000E+00  0.0000000E+00  0.0000000E+00  0.1333333E-01
    1       -2.157339     -2.158338   1.000000   1.000000
    2       -1.710363     -1.713173   1.000000   1.000000
    3       -0.016201     -0.013365   1.000000   1.000000
    4        0.002773     -0.003764   1.000000   1.000000
    5        0.141056      0.148115   1.000000   1.000000
    6        0.391633      0.388167   1.000000   1.000000
    7        0.406350      0.398973   1.000000   1.000000
    8        0.460532      0.467307   1.000000   1.000000
    9        1.587254      1.581061   1.000000   1.000000
   10        1.628126      1.633244   1.000000   1.000000
   11        1.651223      1.648198   1.000000   1.000000
   12        1.769325      1.748844   1.000000   1.000000
   13        1.939007      1.938205   1.000000   1.000000
   14        1.962648      1.953318   1.000000   1.000000
   15        2.236155      2.210156   1.000000   1.000000
   16        2.353458      2.334190   1.000000   1.000000
   17        2.684361      2.677177   1.000000   1.000000
   18        2.960346      2.946780   1.000000   1.000000
   19        3.018390      2.979022   1.000000   1.000000
   20        3.599435      3.586447   1.000000   1.000000
   21        3.671136      3.631577   1.000000   1.000000
   22        3.768372      3.747995   1.000000   1.000000
   23        3.788889      3.768145   1.000000   1.000000
   24        4.010749      3.975462   1.000000   1.000000
   25        4.032476      4.001241   1.000000   1.000000
   26        4.141474      4.118631   1.000000   1.000000
   27        4.174459      4.139133   1.000000   1.000000
   28        4.364393      4.347025   1.000000   1.000000
   29        4.380437      4.358141   1.000000   1.000000
   30        4.428421      4.403405   1.000000   1.000000
   31        4.513676      4.413009   1.000000   1.000000
   32        4.547876      4.549475   1.000000   1.000000
   33        4.690015      4.671501   1.000000   1.000000
   34        4.720601      4.691715   1.000000   1.000000
   35        4.873911      4.824716   1.000000   1.000000
   36        4.930022      4.907972   1.000000   1.000000
   37        5.016374      4.950206   1.000000   1.000000
   38        5.068029      5.024256   1.000000   1.000000
   39        5.121087      5.118593   1.000000   1.000000
   40        5.163967      5.188281   1.000000   1.000000
   41        5.237520      5.232136   1.000000   1.000000
   42        5.274859      5.281849   1.000000   1.000000
   43        5.300755      5.300972   1.000000   1.000000
   44        5.363315      5.360901   1.000000   1.000000
   45        5.428722      5.394320   1.000000   1.000000
   46        5.449682      5.447141   1.000000   1.000000
   47        5.511865      5.519900   1.000000   1.000000
   48        5.567207      5.522439   1.000000   1.000000
   49        5.636039      5.580818   1.000000   1.000000
   50        5.662755      5.587090   1.000000   1.000000
   51        5.692691      5.654517   1.000000   1.000000
   52        5.729964      5.666576   1.000000   1.000000
   53        5.785531      5.708514   1.000000   1.000000
   54        5.883683      5.733427   1.000000   1.000000
   55        5.920796      5.863142   1.000000   1.000000
   56        6.032138      5.879055   1.000000   1.000000
   57        6.081997      5.915225   1.000000   1.000000
   58        6.116563      5.993948   1.000000   1.000000
   59        6.172416      6.030505   1.000000   1.000000
   60        6.173244      6.150940   1.000000   1.000000
   61        6.200452      6.165939   1.000000   1.000000
   62        6.266934      6.202112   1.000000   1.000000
   63        6.289874      6.262519   1.000000   1.000000
   64        6.346549      6.273737   1.000000   1.000000
   65        6.402464      6.297413   1.000000   1.000000
   66        6.418914      6.385036   1.000000   1.000000
   67        6.478123      6.406274   1.000000   1.000000
   68        6.513124      6.430420   1.000000   1.000000
   69        6.545458      6.485138   1.000000   1.000000
   70        6.683256      6.524998   1.000000   1.000000
   71        6.711292      6.572488   1.000000   1.000000
   72        6.743594      6.583276   1.000000   1.000000
   73        6.776116      6.684859   1.000000   1.000000
   74        6.824746      6.717327   1.000000   1.000000
   75        6.945111      6.734937   1.000000   1.000000
   76        7.034151      6.756615   1.000003   1.000000
   77        7.057185      6.811425   1.000007   1.000000
   78        7.148135      6.836426   1.000106   1.000000
   79        7.176981      6.869911   1.000232   1.000000
   80        7.196126      6.883643   1.000378   1.000000
   81        7.248442      6.940024   1.001295   1.000000
   82        7.262584      7.025100   1.001752   1.000002
   83        7.424466      7.088397   1.023268   1.000018
   84        7.472862      7.110487   1.033285   1.000036
   85        7.507991      7.150381   1.035085   1.000113
   86        7.595950      7.361796   0.972276   1.010600
   87        7.654683      7.405480   0.838328   1.018940
   88        7.790299      7.538980   0.307555   1.027299
   89        7.816164      7.556183   0.213242   1.017272
   90        7.885792      7.647570   0.036589   0.859072
   91        7.954801      7.674541  -0.030026   0.773589
   92        7.976109      7.776049  -0.034790   0.364685
   93        8.021860      7.829103  -0.032065   0.172687
   94        8.098549      7.952768  -0.015420  -0.029278
   95        8.142401      8.007952  -0.008139  -0.034197
   96        8.228876      8.032202  -0.001611  -0.030231
   97        8.232380      8.095341  -0.001471  -0.016158
   98        8.311109      8.126539  -0.000225  -0.010450
   99        8.380785      8.229105  -0.000035  -0.001589
  100        8.397508      8.238037  -0.000027  -0.001320
  101        8.534530      8.376539  -0.000000  -0.000096
  102        8.540699      8.390008  -0.000000  -0.000036
  103        8.635108      8.411932  -0.000000  -0.000025
  104        8.684336      8.440376  -0.000000  -0.000007
  105        8.692575      8.533700  -0.000000  -0.000002
  106        8.909485      8.602459  -0.000000  -0.000000
  107        9.084391      8.956860  -0.000000  -0.000000
  108        9.101582      9.028585  -0.000000  -0.000000
 
  0.0000000E+00  0.2000000E+00  0.0000000E+00  0.1333333E-01
    1       -2.426541     -2.428278   1.000000   1.000000
    2       -1.100300     -1.102336   1.000000   1.000000
    3       -0.280164     -0.265919   1.000000   1.000000
    4       -0.220661     -0.240375   1.000000   1.000000
    5       -0.054287     -0.045386   1.000000   1.000000
    6        0.569553      0.566942   1.000000   1.000000
    7        0.887260      0.891930   1.000000   1.000000
    8        0.920106      0.925867   1.000000   1.000000
    9        0.959506      0.940252   1.000000   1.000000
   10        1.435862      1.424295   1.000000   1.000000
   11        1.485779      1.470672   1.000000   1.000000
   12        1.493248      1.492995   1.000000   1.000000
   13        1.928421      1.924465   1.000000   1.000000
   14        2.314326      2.288590   1.000000   1.000000
   15        2.330539      2.312724   1.000000   1.000000
   16        2.337921      2.332567   1.000000   1.000000
   17        2.349772      2.351350   1.000000   1.000000
   18        2.833435      2.810129   1.000000   1.000000
   19        3.221581      3.221505   1.000000   1.000000
   20        3.315061      3.279429   1.000000   1.000000
   21        3.567969      3.559893   1.000000   1.000000
   22        3.678896      3.638693   1.000000   1.000000
   23        3.748436      3.735958   1.000000   1.000000
   24        4.091973      4.074186   1.000000   1.000000
   25        4.130313      4.105562   1.000000   1.000000
   26        4.311801      4.277214   1.000000   1.000000
   27        4.349397      4.323131   1.000000   1.000000
   28        4.496844      4.420560   1.000000   1.000000
   29        4.553382      4.522573   1.000000   1.000000
   30        4.572530      4.551467   1.000000   1.000000
   31        4.619017      4.573747   1.000000   1.000000
   32        4.633528      4.596541   1.000000   1.000000
   33        4.671852      4.615100   1.000000   1.000000
   34        4.706803      4.678287   1.000000   1.000000
   35        4.913258      4.870105   1.000000   1.000000
   36        4.930584      4.921658   1.000000   1.000000
   37        5.007017      4.979777   1.000000   1.000000
   38        5.027628      5.015881   1.000000   1.000000
   39        5.116616      5.040511   1.000000   1.000000
   40        5.139793      5.114637   1.000000   1.000000
   41        5.157076      5.115767   1.000000   1.000000
   42        5.261720      5.300668   1.000000   1.000000
   43        5.347375      5.311582   1.000000   1.000000
   44        5.367626      5.341875   1.000000   1.000000
   45        5.388018      5.406861   1.000000   1.000000
   46        5.445947      5.414942   1.000000   1.000000
   47        5.512614      5.484962   1.000000   1.000000
   48        5.558258      5.541640   1.000000   1.000000
   49        5.604406      5.575212   1.000000   1.000000
   50        5.616675      5.577349   1.000000   1.000000
   51        5.682363      5.650591   1.000000   1.000000
   52        5.693594      5.686304   1.000000   1.000000
   53        5.745278      5.731432   1.000000   1.000000
   54        5.905938      5.805584   1.000000   1.000000
   55        5.907677      5.809855   1.000000   1.000000
   56        6.007176      5.867329   1.000000   1.000000
   57        6.022149      5.950449   1.000000   1.000000
   58        6.203093      5.972805   1.000000   1.000000
   59        6.229815      5.980263   1.000000   1.000000
   60        6.259969      6.076611   1.000000   1.000000
   61        6.300375      6.255366   1.000000   1.000000
   62        6.356661      6.262986   1.000000   1.000000
   63        6.359604      6.316168   1.000000   1.000000
   64        6.430741      6.319007   1.000000   1.000000
   65        6.454506      6.344517   1.000000   1.000000
   66        6.484838      6.375604   1.000000   1.000000
   67        6.547468      6.467056   1.000000   1.000000
   68        6.595887      6.530730   1.000000   1.000000
   69        6.597779      6.545859   1.000000   1.000000
   70        6.626636      6.604023   1.000000   1.000000
   71        6.698657      6.619079   1.000000   1.000000
   72        6.722520      6.659083   1.000000   1.000000
   73        6.739965      6.683575   1.000000   1.000000
   74        6.765877      6.718752   1.000000   1.000000
   75        6.833783      6.739330   1.000000   1.000000
   76        6.905733      6.749958   1.000000   1.000000
   77        7.068406      6.794618   1.000010   1.000000
   78        7.144170      6.797225   1.000095   1.000000
   79        7.203755      6.840239   1.000456   1.000000
   80        7.210941      6.879917   1.000546   1.000000
   81        7.307985      6.940471   1.004301   1.000000
   82        7.414987      6.977546   1.021122   1.000000
   83        7.423557      7.014063   1.023149   1.000002
   84        7.507217      7.189109   1.035154   1.000316
   85        7.550078      7.265856   1.021328   1.001879
   86        7.565924      7.339055   1.009262   1.007453
   87        7.682224      7.381033   0.746405   1.013951
   88        7.688298      7.510696   0.724224   1.034861
   89        7.778989      7.593417   0.352609   0.976148
   90        7.798705      7.629097   0.275554   0.906356
   91        7.966593      7.700836  -0.033279   0.675254
   92        8.016252      7.735820  -0.032998   0.532049
   93        8.099326      7.901642  -0.015270   0.012359
   94        8.105152      7.984699  -0.014146  -0.035400
   95        8.151963      8.009698  -0.006996  -0.033953
   96        8.233603      8.083507  -0.001439  -0.018622
   97        8.271268      8.103444  -0.000614  -0.014475
   98        8.354767      8.168205  -0.000097  -0.005284
   99        8.514553      8.202566  -0.000002  -0.002791
  100        8.589111      8.279297  -0.000001  -0.000510
  101        8.613119      8.310626  -0.000000  -0.000230
  102        8.619332      8.378306  -0.000000  -0.000035
  103        8.688449      8.428641  -0.000000  -0.000011
  104        8.797106      8.494467  -0.000000  -0.000001
  105        8.855716      8.554816  -0.000000  -0.000000
  106        8.930446      8.573176  -0.000000  -0.000000
  107        8.960772      8.916537  -0.000000  -0.000000
  108        9.014251      8.984612  -0.000000  -0.000000
 
  0.2000000E+00  0.2000000E+00  0.0000000E+00  0.1333333E-01
    1       -2.336367     -2.338003   1.000000   1.000000
    2       -1.030188     -1.030241   1.000000   1.000000
    3       -0.998057     -1.002205   1.000000   1.000000
    4        0.011485      0.019968   1.000000   1.000000
    5        0.229356      0.226201   1.000000   1.000000
    6        0.636878      0.635385   1.000000   1.000000
    7        0.666544      0.659173   1.000000   1.000000
    8        0.939803      0.940817   1.000000   1.000000
    9        0.963494      0.969384   1.000000   1.000000
   10        1.586596      1.563615   1.000000   1.000000
   11        1.717763      1.711991   1.000000   1.000000
   12        1.791061      1.778511   1.000000   1.000000
   13        1.842111      1.835517   1.000000   1.000000
   14        1.989233      1.993721   1.000000   1.000000
   15        2.014247      2.000695   1.000000   1.000000
   16        2.796213      2.782478   1.000000   1.000000
   17        2.871076      2.846631   1.000000   1.000000
   18        2.889153      2.863571   1.000000   1.000000
   19        2.896275      2.880631   1.000000   1.000000
   20        2.962254      2.938047   1.000000   1.000000
   21        3.670921      3.647552   1.000000   1.000000
   22        3.786435      3.773201   1.000000   1.000000
   23        3.797038      3.787275   1.000000   1.000000
   24        3.848172      3.826213   1.000000   1.000000
   25        4.154006      4.128021   1.000000   1.000000
   26        4.314238      4.245898   1.000000   1.000000
   27        4.350266      4.318455   1.000000   1.000000
   28        4.380058      4.355973   1.000000   1.000000
   29        4.422586      4.412282   1.000000   1.000000
   30        4.493780      4.456257   1.000000   1.000000
   31        4.522563      4.469067   1.000000   1.000000
   32        4.614261      4.567160   1.000000   1.000000
   33        4.653403      4.624313   1.000000   1.000000
   34        4.775139      4.716705   1.000000   1.000000
   35        4.851868      4.809182   1.000000   1.000000
   36        4.925936      4.885604   1.000000   1.000000
   37        4.930379      4.910837   1.000000   1.000000
   38        4.994197      4.979943   1.000000   1.000000
   39        5.058618      5.063566   1.000000   1.000000
   40        5.141911      5.112357   1.000000   1.000000
   41        5.234456      5.254229   1.000000   1.000000
   42        5.258454      5.260450   1.000000   1.000000
   43        5.344744      5.334978   1.000000   1.000000
   44        5.382334      5.357028   1.000000   1.000000
   45        5.447776      5.417470   1.000000   1.000000
   46        5.497247      5.436045   1.000000   1.000000
   47        5.536434      5.470937   1.000000   1.000000
   48        5.542874      5.546955   1.000000   1.000000
   49        5.618853      5.603829   1.000000   1.000000
   50        5.637210      5.654781   1.000000   1.000000
   51        5.720125      5.677762   1.000000   1.000000
   52        5.766875      5.725491   1.000000   1.000000
   53        5.786195      5.743897   1.000000   1.000000
   54        5.927287      5.823038   1.000000   1.000000
   55        5.963966      5.842628   1.000000   1.000000
   56        6.013477      5.886631   1.000000   1.000000
   57        6.040634      5.929759   1.000000   1.000000
   58        6.149655      5.988195   1.000000   1.000000
   59        6.207669      6.015942   1.000000   1.000000
   60        6.216539      6.034668   1.000000   1.000000
   61        6.293443      6.187983   1.000000   1.000000
   62        6.296780      6.212132   1.000000   1.000000
   63        6.359482      6.299751   1.000000   1.000000
   64        6.404733      6.327613   1.000000   1.000000
   65        6.441188      6.345274   1.000000   1.000000
   66        6.495516      6.411056   1.000000   1.000000
   67        6.537318      6.444053   1.000000   1.000000
   68        6.550472      6.504373   1.000000   1.000000
   69        6.613511      6.589768   1.000000   1.000000
   70        6.652321      6.602699   1.000000   1.000000
   71        6.687412      6.605520   1.000000   1.000000
   72        6.701535      6.653619   1.000000   1.000000
   73        6.773048      6.692343   1.000000   1.000000
   74        6.797499      6.694647   1.000000   1.000000
   75        6.910054      6.753321   1.000000   1.000000
   76        6.930514      6.753616   1.000000   1.000000