       N       E                     dE             d eps       ncg     rms          ort
DAV:   1     0.136005037932E+04    0.13601E+04   -0.58048E+04  5616   0.146E+03
DAV:   2    -0.491685689642E+02   -0.14092E+04   -0.13832E+04  5616   0.454E+02
DAV:   3    -0.234963625125E+03   -0.18580E+03   -0.16965E+03  5616   0.177E+02
DAV:   4    -0.265645711521E+03   -0.30682E+02   -0.27751E+02  5616   0.774E+01
DAV:   5    -0.269297413657E+03   -0.36517E+01   -0.34686E+01  5616   0.229E+01
DAV:   6    -0.269648057827E+03   -0.35064E+00   -0.33836E+00  5616   0.587E+00
DAV:   7    -0.269694641708E+03   -0.46584E-01   -0.45485E-01  5616   0.188E+00
DAV:   8    -0.269700992422E+03   -0.63507E-02   -0.62418E-02  5616   0.543E-01
SDA:   9    -0.626223376141E+02    0.20708E+03   -0.62418E-02  5616   0.231E+04 0.000E+00
CGA:  10    -0.208860615933E+03   -0.14624E+03   -0.14776E+03  5616   0.109E+03 0.349E+03
CGA:  11    -0.218083283696E+03   -0.92227E+01   -0.91800E+01  5616   0.589E+02 0.128E+01
CGA:  12    -0.227358547885E+03   -0.92753E+01   -0.92598E+01  5616   0.917E+02-0.126E+00
CGA:  13    -0.232980400479E+03   -0.56219E+01   -0.56921E+01  5616   0.118E+02 0.712E+00
CGA:  14    -0.233918554878E+03   -0.93815E+00   -0.94624E+00  5616   0.527E+01-0.436E-01
CGA:  15    -0.234763749445E+03   -0.84519E+00   -0.84578E+00  5616   0.633E+01 0.211E-01
CGA:  16    -0.235252973395E+03   -0.48922E+00   -0.49055E+00  5616   0.185E+01-0.130E-02
CGA:  17    -0.235422903203E+03   -0.16993E+00   -0.17023E+00  5616   0.142E+01-0.525E-03
CGA:  18    -0.235630358796E+03   -0.20746E+00   -0.20747E+00  5616   0.124E+01-0.709E-03
CGA:  19    -0.235742072951E+03   -0.11171E+00   -0.11210E+00  5616   0.451E+00-0.261E-02
CGA:  20    -0.235791360138E+03   -0.49287E-01   -0.49382E-01  5616   0.479E+00-0.130E-03
CGA:  21    -0.235872746581E+03   -0.81386E-01   -0.81376E-01  5616   0.448E+00 0.316E-03
CGA:  22    -0.235913459104E+03   -0.40713E-01   -0.40689E-01  5616   0.176E+00-0.255E-03
CGA:  23    -0.235932822919E+03   -0.19364E-01   -0.19359E-01  5616   0.167E+00-0.259E-03
CGA:  24    -0.235958641062E+03   -0.25818E-01   -0.25819E-01  5616   0.183E+00-0.561E-03
CGA:  25    -0.235979366922E+03   -0.20726E-01   -0.20714E-01  5616   0.116E+00-0.316E-03
CGA:  26    -0.235997613180E+03   -0.18246E-01   -0.18248E-01  5616   0.109E+00-0.159E-03
CGA:  27    -0.236009215829E+03   -0.11603E-01   -0.11591E-01  5616   0.684E-01 0.357E-04
CGA:  28    -0.236015992646E+03   -0.67768E-02   -0.67730E-02  5616   0.412E-01 0.125E-03
CGA:  29    -0.236022322985E+03   -0.63303E-02   -0.63299E-02  5616   0.371E-01 0.865E-04
CGA:  30    -0.236027216844E+03   -0.48939E-02   -0.48946E-02  5616   0.275E-01 0.913E-04
CGA:  31    -0.236031396367E+03   -0.41795E-02   -0.41792E-02  5616   0.320E-01 0.981E-04
CGA:  32    -0.236034817444E+03   -0.34211E-02   -0.34237E-02  5616   0.190E-01 0.131E-03
CGA:  33    -0.236036963250E+03   -0.21458E-02   -0.21486E-02  5616   0.108E-01 0.108E-03
CGA:  34    -0.236038575224E+03   -0.16120E-02   -0.16115E-02  5616   0.104E-01 0.796E-04
CGA:  35    -0.236039812589E+03   -0.12374E-02   -0.12384E-02  5616   0.653E-02 0.418E-04
CGA:  36    -0.236040585520E+03   -0.77293E-03   -0.77341E-03  5616   0.647E-02 0.145E-04
CGA:  37    -0.236041662931E+03   -0.10774E-02   -0.10770E-02  5616   0.615E-02 0.174E-04
CGA:  38    -0.236042392762E+03   -0.72983E-03   -0.73041E-03  5616   0.268E-02 0.282E-04
CGA:  39    -0.236042646543E+03   -0.25378E-03   -0.25420E-03  5616   0.196E-02 0.981E-05
SDA:  40    -0.236042997816E+03   -0.35127E-03   -0.35128E-03  5616   0.251E-02-0.119E-05
CGA:  41    -0.236043193809E+03   -0.19599E-03   -0.19539E-03  5616   0.148E-02-0.101E-04
CGA:  42    -0.236043344963E+03   -0.15115E-03   -0.15065E-03  5616   0.888E-03-0.146E-04
CGA:  43    -0.236043520750E+03   -0.17579E-03   -0.17678E-03  5616   0.158E-02-0.152E-04
CGA:  44    -0.236043708315E+03   -0.18757E-03   -0.18736E-03  5616   0.472E-03-0.114E-04
CGA:  45    -0.236043773244E+03   -0.64928E-04   -0.64931E-04  5616   0.773E-03-0.294E-05
CGA:  46    -0.236043899700E+03   -0.12646E-03   -0.12663E-03  5616   0.554E-03-0.648E-05
CGA:  47    -0.236043953122E+03   -0.53423E-04   -0.53372E-04  5616   0.399E-03-0.124E-05
CGA:  48    -0.236044051158E+03   -0.98035E-04   -0.97900E-04  5616   0.462E-03 0.139E-05
CGA:  49    -0.236044088482E+03   -0.37324E-04   -0.37378E-04  5616   0.248E-03 0.123E-05
CGA:  50    -0.236044131600E+03   -0.43119E-04   -0.43111E-04  5616   0.309E-03 0.646E-06
CGA:  51    -0.236044159693E+03   -0.28093E-04   -0.28136E-04  5616   0.861E-04 0.109E-05
CGA:  52    -0.236044183177E+03   -0.23484E-04   -0.23235E-04  5616   0.181E-03 0.212E-05
CGA:  53    -0.236044198444E+03   -0.15267E-04   -0.15331E-04  5616   0.643E-04 0.109E-05
CGA:  54    -0.236044207839E+03   -0.93946E-05   -0.93957E-05  5616   0.973E-04-0.395E-06
CGA:  55    -0.236044222096E+03   -0.14257E-04   -0.14261E-04  5616   0.344E-04-0.726E-06
CGA:  56    -0.236044225211E+03   -0.31157E-05   -0.31437E-05  5616   0.247E-04 0.580E-06
CGA:  57    -0.236044228658E+03   -0.34470E-05   -0.34501E-05  5616   0.248E-04 0.850E-06
CGA:  58    -0.236044233491E+03   -0.48327E-05   -0.48529E-05  5616   0.371E-04-0.423E-06
CGA:  59    -0.236044238051E+03   -0.45595E-05   -0.45356E-05  5616   0.108E-04-0.137E-05
CGA:  60    -0.236044239133E+03   -0.10827E-05   -0.10716E-05  5616   0.110E-04-0.284E-06
CGA:  61    -0.236044242246E+03   -0.31125E-05   -0.31109E-05  5616   0.149E-04-0.152E-07
CGA:  62    -0.236044243353E+03   -0.11069E-05   -0.11262E-05  5616   0.278E-05 0.267E-06
CGA:  63    -0.236044243852E+03   -0.49973E-06   -0.50401E-06  5616   0.482E-05-0.252E-07
CGA:  64    -0.236044244322E+03   -0.46971E-06   -0.45370E-06  5616   0.471E-05-0.399E-07
CGA:  65    -0.236044245536E+03   -0.12137E-05   -0.15786E-05  5616   0.201E-04-0.199E-05
CGA:  66    -0.236044245743E+03   -0.20693E-06   -0.26607E-06  5616   0.114E-04 0.567E-06
CGA:  67    -0.236044246034E+03   -0.29093E-06   -0.26885E-06  5616   0.214E-05 0.421E-06
CGA:  68    -0.236044246122E+03   -0.88156E-07   -0.59618E-07  5616   0.114E-05 0.101E-05
   1 F= -.23604425E+03 E0= -.23604772E+03  d E =0.104226E-01  mag=    -3.0883
