 vasp.5.4.4.18Apr17-6-g9f103f2a35 (build Dec 20 2018 12:05:58) complex          
  
 executed on             LinuxIFC date 2019.06.20  13:59:00
 running on   32 total cores
 distrk:  each k-point on    8 cores,    4 groups
 distr:  one band on NCORES_PER_BAND=   4 cores,    2 groups


--------------------------------------------------------------------------------------------------------


 INCAR:
 POTCAR:    PAW_PBE Al 04Jan2001                  
 POTCAR:    PAW_PBE Mn 06Sep2000                  

 ----------------------------------------------------------------------------- 
|                                                                             |
|           W    W    AA    RRRRR   N    N  II  N    N   GGGG   !!!           |
|           W    W   A  A   R    R  NN   N  II  NN   N  G    G  !!!           |
|           W    W  A    A  R    R  N N  N  II  N N  N  G       !!!           |
|           W WW W  AAAAAA  RRRRR   N  N N  II  N  N N  G  GGG   !            |
|           WW  WW  A    A  R   R   N   NN  II  N   NN  G    G                |
|           W    W  A    A  R    R  N    N  II  N    N   GGGG   !!!           |
|                                                                             |
|      You have enabled k-point parallelism (KPAR>1).                         |
|      This developmental code was originally  written by Paul Kent at ORNL,  |
|      and carefully double checked in Vienna.                                |
|      GW as well as linear response parallelism added by Martijn Marsman     |
|      and Georg Kresse.                                                      |
|      Carefully verify results versus KPAR=1.                                |
|      Report problems to Paul Kent and Vienna.                               |
|                                                                             |
 ----------------------------------------------------------------------------- 

 POTCAR:    PAW_PBE Al 04Jan2001                  
   VRHFIN =Al: s2p1                                                             
   LEXCH  = PE                                                                  
   EATOM  =    53.5387 eV,    3.9350 Ry                                         
                                                                                
   TITEL  = PAW_PBE Al 04Jan2001                                                
   LULTRA =        F    use ultrasoft PP ?                                      
   IUNSCR =        1    unscreen: 0-lin 1-nonlin 2-no                           
   RPACOR =    1.500    partial core radius                                     
   POMASS =   26.981; ZVAL   =    3.000    mass and valenz                      
   RCORE  =    1.900    outmost cutoff radius                                   
   RWIGS  =    2.650; RWIGS  =    1.402    wigner-seitz radius (au A)           
   ENMAX  =  240.300; ENMIN  =  180.225 eV                                      
   ICORE  =        2    local potential                                         
   LCOR   =        T    correct aug charges                                     
   LPAW   =        T    paw PP                                                  
   EAUG   =  291.052                                                            
   DEXC   =    0.000                                                            
   RMAX   =    1.939    core radius for proj-oper                               
   RAUG   =    1.300    factor for augmentation sphere                          
   RDEP   =    1.966    radius for radial grids                                 
   RDEPT  =    1.856    core radius for aug-charge                              
                                                                                
   Atomic configuration                                                         
    6 entries                                                                   
     n  l   j            E        occ.                                          
     1  0  0.50     -1511.1048   2.0000                                         
     2  0  0.50      -108.1629   2.0000                                         
     2  1  1.50       -69.6402   6.0000                                         
     3  0  0.50        -7.7528   2.0000                                         
     3  1  1.50        -2.7121   1.0000                                         
     3  2  2.50        -2.7212   0.0000                                         
   Description                                                                  
     l       E           TYP  RCUT    TYP  RCUT                                 
     0     -7.7528455     23  1.900                                             
     0     -3.3096929     23  1.900                                             
     1     -2.7120682     23  1.900                                             
     1     13.6058260     23  1.900                                             
     2     -2.7211652      7  1.900                                             
  local pseudopotential read in
  partial core-charges read in
  partial kinetic energy density read in
  atomic valenz-charges read in
  non local Contribution for L=           0  read in
    real space projection operators read in
  non local Contribution for L=           0  read in
    real space projection operators read in
  non local Contribution for L=           1  read in
    real space projection operators read in
  non local Contribution for L=           1  read in
    real space projection operators read in
    PAW grid and wavefunctions read in
 
   number of l-projection  operators is LMAX  =           4
   number of lm-projection operators is LMMAX =           8
 
 POTCAR:    PAW_PBE Mn 06Sep2000                  
   VRHFIN =Mn: d6 s1                                                            
   LEXCH  = PE                                                                  
   EATOM  =   416.7541 eV,   30.6306 Ry                                         
                                                                                
   TITEL  = PAW_PBE Mn 06Sep2000                                                
   LULTRA =        F    use ultrasoft PP ?                                      
   IUNSCR =        1    unscreen: 0-lin 1-nonlin 2-no                           
   RPACOR =    2.000    partial core radius                                     
   POMASS =   54.938; ZVAL   =    7.000    mass and valenz                      
   RCORE  =    2.300    outmost cutoff radius                                   
   RWIGS  =    2.500; RWIGS  =    1.323    wigner-seitz radius (au A)           
   ENMAX  =  269.864; ENMIN  =  202.398 eV                                      
   RCLOC  =    1.725    cutoff for local pot                                    
   LCOR   =        T    correct aug charges                                     
   LPAW   =        T    paw PP                                                  
   EAUG   =  500.711                                                            
   DEXC   =    0.000                                                            
   RMAX   =    2.343    core radius for proj-oper                               
   RAUG   =    1.300    factor for augmentation sphere                          
   RDEP   =    2.338    radius for radial grids                                 
   RDEPT  =    1.911    core radius for aug-charge                              
                                                                                
   Atomic configuration                                                         
    9 entries                                                                   
     n  l   j            E        occ.                                          
     1  0  0.50     -6424.8288   2.0000                                         
     2  0  0.50      -739.1154   2.0000                                         
     2  1  1.50      -625.3949   6.0000                                         
     3  0  0.50       -81.6100   2.0000                                         
     3  1  1.50       -50.4667   6.0000                                         
     3  2  2.50        -3.3745   6.0000                                         
     4  0  0.50        -4.1331   1.0000                                         
     4  1  0.50        -4.0817   0.0000                                         
     4  3  2.50        -1.3606   0.0000                                         
   Description                                                                  
     l       E           TYP  RCUT    TYP  RCUT                                 
     2     -3.3744664     23  2.300                                             
     2     -4.7350490     23  2.300                                             
     0     -4.1331408     23  2.300                                             
     0      7.6656614     23  2.300                                             
     1     -2.7211652     23  2.300                                             
     1     20.4087390     23  2.300                                             
  local pseudopotential read in
  partial core-charges read in
  partial kinetic energy density read in
  atomic valenz-charges read in
  non local Contribution for L=           2  read in
    real space projection operators read in
  non local Contribution for L=           2  read in
    real space projection operators read in
  non local Contribution for L=           0  read in
    real space projection operators read in
  non local Contribution for L=           0  read in
    real space projection operators read in
  non local Contribution for L=           1  read in
    real space projection operators read in
  non local Contribution for L=           1  read in
    real space projection operators read in
    PAW grid and wavefunctions read in
 
   number of l-projection  operators is LMAX  =           6
   number of lm-projection operators is LMMAX =          18
 

 ----------------------------------------------------------------------------- 
|                                                                             |
|  ADVICE TO THIS USER RUNNING 'VASP/VAMP'   (HEAR YOUR MASTER'S VOICE ...):  |
|                                                                             |
|      You have a (more or less) 'large supercell' and for larger cells       |
|      it might be more efficient to use real space projection opertators     |
|      So try LREAL= Auto  in the INCAR   file.                               |
|      Mind:          For very  accurate calculation you might also keep the  |
|      reciprocal projection scheme          (i.e. LREAL=.FALSE.)             |
|                                                                             |
 ----------------------------------------------------------------------------- 

  PAW_PBE Al 04Jan2001                  :
 energy of atom  1       EATOM=  -53.5387
 kinetic energy error for atom=    0.0005 (will be added to EATOM!!)
  PAW_PBE Mn 06Sep2000                  :
 energy of atom  2       EATOM= -416.7541
 kinetic energy error for atom=    0.0080 (will be added to EATOM!!)
 
 
 POSCAR: NewRef: 18, @ ['Mn', array([1.37502469, 
  positions in cartesian coordinates
  velocities in cartesian coordinates
  No initial velocities read in
 exchange correlation table for  LEXCH =        8
   RHO(1)=    0.500       N(1)  =     2000
   RHO(2)=  100.500       N(2)  =     4000
 


--------------------------------------------------------------------------------------------------------


 ion  position               nearest neighbor table
   1  0.000  0.000  0.000-  20 2.61  24 2.61  32 2.61  36 2.61  31 2.61  23 2.61  35 2.61  19 2.61
                             3 2.75   7 2.75   5 2.75  13 2.75
   2  0.000  0.000  0.500-  19 2.61  23 2.61  31 2.61  35 2.61  20 2.61  32 2.61  24 2.61  36 2.61
                             4 2.75   8 2.75   6 2.75  14 2.75
   3  0.000  0.333  0.000-  20 2.61  32 2.61  22 2.61  34 2.61  19 2.61  31 2.61  33 2.61  21 2.61
                             9 2.75   1 2.75   5 2.75  15 2.75
   4  0.000  0.333  0.500-  19 2.61  31 2.61  21 2.61  33 2.61  32 2.61  20 2.61  22 2.61  34 2.61
                            10 2.75   2 2.75   6 2.75  16 2.75
   5  0.000  0.667  0.000-  22 2.61  34 2.61  24 2.61  36 2.61  21 2.61  33 2.61  35 2.61  23 2.61
                             3 2.75  11 2.75   1 2.75  17 2.75
   6  0.000  0.667  0.500-  21 2.61  33 2.61  23 2.61  35 2.61  34 2.61  22 2.61  24 2.61  36 2.61
                             4 2.75  12 2.75   2 2.75  18 2.75
   7  0.333  0.000  0.000-  20 2.61  24 2.61  26 2.61  30 2.61  23 2.61  19 2.61  29 2.61  25 2.61
                            13 2.75   1 2.75   9 2.75  11 2.75
   8  0.333  0.000  0.500-  19 2.61  23 2.61  25 2.61  29 2.61  20 2.61  24 2.61  26 2.61  30 2.61
                            14 2.75   2 2.75  10 2.75  12 2.75
   9  0.333  0.333  0.000-  20 2.61  22 2.61  26 2.61  19 2.61  28 2.61  21 2.61  25 2.61  27 2.61
                             3 2.75   7 2.75  11 2.75  15 2.75
  10  0.333  0.333  0.500-  19 2.61  21 2.61  25 2.61  20 2.61  27 2.61  26 2.61  22 2.61  28 2.61
                             4 2.75   8 2.75  12 2.75  16 2.75
  11  0.333  0.667  0.000-  22 2.61  24 2.61  28 2.61  21 2.61  30 2.61  23 2.61  27 2.61  29 2.61
                            17 2.75   5 2.75   9 2.75   7 2.75
  12  0.333  0.667  0.500-  21 2.61  23 2.61  27 2.61  22 2.61  29 2.61  28 2.61  24 2.61  30 2.61
                            18 2.75   6 2.75  10 2.75   8 2.75
  13  0.667  0.000  0.000-  26 2.61  30 2.61  32 2.61  36 2.61  29 2.61  25 2.61  35 2.61  31 2.61
                             7 2.75  15 2.75   1 2.75  17 2.75
  14  0.667  0.000  0.500-  25 2.61  29 2.61  31 2.61  35 2.61  26 2.61  30 2.61  32 2.61  36 2.61
                             8 2.75  16 2.75   2 2.75  18 2.75
  15  0.667  0.333  0.000-  26 2.61  28 2.61  32 2.61  25 2.61  34 2.61  27 2.61  31 2.61  33 2.61
                            17 2.75   9 2.75  13 2.75   3 2.75
  16  0.667  0.333  0.500-  25 2.61  27 2.61  31 2.61  26 2.61  33 2.61  32 2.61  28 2.61  34 2.61
                            18 2.75  10 2.75  14 2.75   4 2.75
  17  0.667  0.667  0.000-  28 2.61  30 2.61  34 2.61  27 2.61  36 2.61  29 2.61  33 2.61  35 2.61
                            11 2.75  15 2.75  13 2.75   5 2.75
  18  0.667  0.667  0.500-  27 2.61  29 2.61  33 2.61  28 2.61  35 2.61  34 2.61  30 2.61  36 2.61
                            12 2.75  16 2.75  14 2.75   6 2.75
  19  0.167  0.167  0.250-  10 2.61   8 2.61   4 2.61   9 2.61   2 2.61   7 2.61   3 2.61   1 2.61
                            21 2.75  25 2.75  23 2.75  31 2.75
  20  0.167  0.167  0.750-   9 2.61   7 2.61   3 2.61  10 2.61   1 2.61   4 2.61   8 2.61   2 2.61
                            22 2.75  26 2.75  24 2.75  32 2.75
  21  0.167  0.500  0.250-  12 2.61  10 2.61   6 2.61  11 2.61   4 2.61   9 2.61   5 2.61   3 2.61
                            19 2.75  23 2.75  27 2.75  33 2.75
  22  0.167  0.500  0.750-  11 2.61   9 2.61   5 2.61  12 2.61   3 2.61   6 2.61  10 2.61   4 2.61
                            20 2.75  24 2.75  28 2.75  34 2.75
  23  0.167  0.833  0.250-   8 2.61  12 2.61   2 2.61   6 2.61  11 2.61   7 2.61   5 2.61   1 2.61
                            21 2.75  29 2.75  19 2.75  35 2.75
  24  0.167  0.833  0.750-   7 2.61  11 2.61   1 2.61   5 2.61   8 2.61  12 2.61   2 2.61   6 2.61
                            22 2.75  30 2.75  20 2.75  36 2.75
  25  0.500  0.167  0.250-  16 2.61  14 2.61  10 2.61  15 2.61   8 2.61  13 2.61   9 2.61   7 2.61
                            19 2.75  27 2.75  31 2.75  29 2.75
  26  0.500  0.167  0.750-  15 2.61  13 2.61   9 2.61  16 2.61   7 2.61  10 2.61  14 2.61   8 2.61
                            20 2.75  28 2.75  32 2.75  30 2.75
  27  0.500  0.500  0.250-  18 2.61  16 2.61  12 2.61  17 2.61  10 2.61  15 2.61  11 2.61   9 2.61
                            21 2.75  25 2.75  29 2.75  33 2.75
  28  0.500  0.500  0.750-  17 2.61  15 2.61  11 2.61  18 2.61   9 2.61  12 2.61  16 2.61  10 2.61
                            22 2.75  26 2.75  30 2.75  34 2.75
  29  0.500  0.833  0.250-  14 2.61  18 2.61   8 2.61  12 2.61  17 2.61  13 2.61  11 2.61   7 2.61
                            23 2.75  27 2.75  35 2.75  25 2.75
  30  0.500  0.833  0.750-  13 2.61  17 2.61   7 2.61  11 2.61  14 2.61  18 2.61   8 2.61  12 2.61
                            24 2.75  28 2.75  36 2.75  26 2.75
  31  0.833  0.167  0.250-   4 2.61  16 2.61  14 2.61   2 2.61  15 2.61   3 2.61  13 2.61   1 2.61
                            25 2.75  33 2.75  19 2.75  35 2.75
  32  0.833  0.167  0.750-   3 2.61  15 2.61  13 2.61   1 2.61   4 2.61  16 2.61   2 2.61  14 2.61
                            26 2.75  34 2.75  20 2.75  36 2.75
  33  0.833  0.500  0.250-   6 2.61  18 2.61  16 2.61   4 2.61  17 2.61   5 2.61  15 2.61   3 2.61
                            27 2.75  31 2.75  35 2.75  21 2.75
  34  0.833  0.500  0.750-   5 2.61  17 2.61  15 2.61   3 2.61   6 2.61  18 2.61   4 2.61  16 2.61
                            28 2.75  32 2.75  36 2.75  22 2.75
  35  0.833  0.833  0.250-   2 2.61   6 2.61  14 2.61  18 2.61  13 2.61   5 2.61  17 2.61   1 2.61
                            29 2.75  33 2.75  31 2.75  23 2.75
  36  0.833  0.833  0.750-   1 2.61   5 2.61  13 2.61  17 2.61   2 2.61  14 2.61   6 2.61  18 2.61
                            30 2.75  34 2.75  32 2.75  24 2.75
 
  LATTYP: Found a simple tetragonal cell.
 ALAT       =     8.2501481662
 C/A-ratio  =     0.8428059861
  
  Lattice vectors:
  
 A1 = (   8.2501481662,   0.0000000000,   0.0000000000)
 A2 = (   0.0000000000,   8.2501481662,   0.0000000000)
 A3 = (   0.0000000000,   0.0000000000,   6.9532742610)


Analysis of symmetry for initial positions (statically):
=====================================================================
 Subroutine PRICEL returns following result:
 
  LATTYP: Found a simple tetragonal cell.
 ALAT       =     2.7500493888
 C/A-ratio  =     1.2642089792
  
  Lattice vectors:
  
 A1 = (   2.7500493888,   0.0000000000,   0.0000000000)
 A2 = (   0.0000000000,   2.7500493888,   0.0000000000)
 A3 = (   0.0000000000,   0.0000000000,   3.4766371305)
 
  18 primitive cells build up your supercell.
 

 Routine SETGRP: Setting up the symmetry group for a 
 simple tetragonal supercell.


 Subroutine GETGRP returns: Found 16 space group operations
 (whereof 16 operations were pure point group operations)
 out of a pool of 16 trial point group operations.


The static configuration has the point symmetry D_4h.


Analysis of symmetry for dynamics (positions and initial velocities):
=====================================================================
 Subroutine PRICEL returns following result:
 
  LATTYP: Found a simple tetragonal cell.
 ALAT       =     2.7500493888
 C/A-ratio  =     1.2642089792
  
  Lattice vectors:
  
 A1 = (   2.7500493888,   0.0000000000,   0.0000000000)
 A2 = (   0.0000000000,   2.7500493888,   0.0000000000)
 A3 = (   0.0000000000,   0.0000000000,   3.4766371305)
 
  18 primitive cells build up your supercell.
 

 Routine SETGRP: Setting up the symmetry group for a 
 simple tetragonal supercell.


 Subroutine GETGRP returns: Found 16 space group operations
 (whereof 16 operations were pure point group operations)
 out of a pool of 16 trial point group operations.


The dynamic configuration has the point symmetry D_4h.


Analysis of structural, dynamic, and magnetic symmetry:
=====================================================================
 Subroutine PRICEL returns:
 Original cell was already a primitive cell.
 

 Routine SETGRP: Setting up the symmetry group for a 
 simple tetragonal supercell.


 Subroutine GETGRP returns: Found  2 space group operations
 (whereof  1 operations were pure point group operations)
 out of a pool of 16 trial point group operations.


The magnetic configuration has the point symmetry C_1 .
 The point group associated with its full space group is C_1h.


 Subroutine INISYM returns: Found  2 space group operations
 (whereof  1 operations are pure point group operations),
 and found     1 'primitive' translations

 
 
 KPOINTS: automatic KPOINTS                       

Automatic generation of k-mesh.
 generate k-points for:    5    5    6
Space group operators:
 irot       det(A)        alpha          n_x          n_y          n_z        tau_x        tau_y        tau_z
    1     1.000000     0.000001     1.000000     0.000000     0.000000     0.000000     0.000000     0.000000
    2    -1.000000   179.999999     0.000000     0.000000     1.000000     0.000000     0.000000     0.500000
 
 Subroutine IBZKPT returns following result:
 ===========================================
 
 Found     52 irreducible k-points:
 
 Following reciprocal coordinates:
            Coordinates               Weight
  0.000000  0.000000  0.000000      1.000000
  0.200000  0.000000  0.000000      2.000000
  0.400000  0.000000  0.000000      2.000000
  0.000000  0.200000  0.000000      2.000000
  0.200000  0.200000  0.000000      2.000000
  0.400000  0.200000  0.000000      2.000000
 -0.400000  0.200000  0.000000      2.000000
 -0.200000  0.200000  0.000000      2.000000
  0.000000  0.400000  0.000000      2.000000
  0.200000  0.400000  0.000000      2.000000
  0.400000  0.400000  0.000000      2.000000
 -0.400000  0.400000  0.000000      2.000000
 -0.200000  0.400000  0.000000      2.000000
  0.000000  0.000000  0.166667      2.000000
  0.200000  0.000000  0.166667      4.000000
  0.400000  0.000000  0.166667      4.000000
  0.000000  0.200000  0.166667      4.000000
  0.200000  0.200000  0.166667      4.000000
  0.400000  0.200000  0.166667      4.000000
 -0.400000  0.200000  0.166667      4.000000
 -0.200000  0.200000  0.166667      4.000000
  0.000000  0.400000  0.166667      4.000000
  0.200000  0.400000  0.166667      4.000000
  0.400000  0.400000  0.166667      4.000000
 -0.400000  0.400000  0.166667      4.000000
 -0.200000  0.400000  0.166667      4.000000
  0.000000  0.000000  0.333333      2.000000
  0.200000  0.000000  0.333333      4.000000
  0.400000  0.000000  0.333333      4.000000
  0.000000  0.200000  0.333333      4.000000
  0.200000  0.200000  0.333333      4.000000
  0.400000  0.200000  0.333333      4.000000
 -0.400000  0.200000  0.333333      4.000000
 -0.200000  0.200000  0.333333      4.000000
  0.000000  0.400000  0.333333      4.000000
  0.200000  0.400000  0.333333      4.000000
  0.400000  0.400000  0.333333      4.000000
 -0.400000  0.400000  0.333333      4.000000
 -0.200000  0.400000  0.333333      4.000000
  0.000000  0.000000  0.500000      1.000000
  0.200000  0.000000  0.500000      2.000000
  0.400000  0.000000  0.500000      2.000000
  0.000000  0.200000  0.500000      2.000000
  0.200000  0.200000  0.500000      2.000000
  0.400000  0.200000  0.500000      2.000000
 -0.400000  0.200000  0.500000      2.000000
 -0.200000  0.200000  0.500000      2.000000
  0.000000  0.400000  0.500000      2.000000
  0.200000  0.400000  0.500000      2.000000
  0.400000  0.400000  0.500000      2.000000
 -0.400000  0.400000  0.500000      2.000000
 -0.200000  0.400000  0.500000      2.000000
 
 Following cartesian coordinates:
            Coordinates               Weight
  0.000000  0.000000  0.000000      1.000000
  0.024242  0.000000  0.000000      2.000000
  0.048484  0.000000  0.000000      2.000000
  0.000000  0.024242  0.000000      2.000000
  0.024242  0.024242  0.000000      2.000000
  0.048484  0.024242  0.000000      2.000000
 -0.048484  0.024242  0.000000      2.000000
 -0.024242  0.024242  0.000000      2.000000
  0.000000  0.048484  0.000000      2.000000
  0.024242  0.048484  0.000000      2.000000
  0.048484  0.048484  0.000000      2.000000
 -0.048484  0.048484  0.000000      2.000000
 -0.024242  0.048484  0.000000      2.000000
  0.000000  0.000000  0.023970      2.000000
  0.024242  0.000000  0.023970      4.000000
  0.048484  0.000000  0.023970      4.000000
  0.000000  0.024242  0.023970      4.000000
  0.024242  0.024242  0.023970      4.000000
  0.048484  0.024242  0.023970      4.000000
 -0.048484  0.024242  0.023970      4.000000
 -0.024242  0.024242  0.023970      4.000000
  0.000000  0.048484  0.023970      4.000000
  0.024242  0.048484  0.023970      4.000000
  0.048484  0.048484  0.023970      4.000000
 -0.048484  0.048484  0.023970      4.000000
 -0.024242  0.048484  0.023970      4.000000
  0.000000  0.000000  0.047939      2.000000
  0.024242  0.000000  0.047939      4.000000
  0.048484  0.000000  0.047939      4.000000
  0.000000  0.024242  0.047939      4.000000
  0.024242  0.024242  0.047939      4.000000
  0.048484  0.024242  0.047939      4.000000
 -0.048484  0.024242  0.047939      4.000000
 -0.024242  0.024242  0.047939      4.000000
  0.000000  0.048484  0.047939      4.000000
  0.024242  0.048484  0.047939      4.000000
  0.048484  0.048484  0.047939      4.000000
 -0.048484  0.048484  0.047939      4.000000
 -0.024242  0.048484  0.047939      4.000000
  0.000000  0.000000  0.071909      1.000000
  0.024242  0.000000  0.071909      2.000000
  0.048484  0.000000  0.071909      2.000000
  0.000000  0.024242  0.071909      2.000000
  0.024242  0.024242  0.071909      2.000000
  0.048484  0.024242  0.071909      2.000000
 -0.048484  0.024242  0.071909      2.000000
 -0.024242  0.024242  0.071909      2.000000
  0.000000  0.048484  0.071909      2.000000
  0.024242  0.048484  0.071909      2.000000
  0.048484  0.048484  0.071909      2.000000
 -0.048484  0.048484  0.071909      2.000000
 -0.024242  0.048484  0.071909      2.000000
 


--------------------------------------------------------------------------------------------------------




 Dimension of arrays:
   k-points           NKPTS =     52   k-points in BZ     NKDIM =     52   number of bands    NBANDS=    108
   number of dos      NEDOS =    301   number of ions     NIONS =     36
   non local maximal  LDIM  =      6   non local SUM 2l+1 LMDIM =     18
   total plane-waves  NPLWV = 139968
   max r-space proj   IRMAX =      1   max aug-charges    IRDMAX=  92271
   dimension x,y,z NGX =    54 NGY =   54 NGZ =   48
   dimension x,y,z NGXF=   108 NGYF=  108 NGZF=   96
   support grid    NGXF=   216 NGYF=  216 NGZF=  192
   ions per type =              18  18
   NGX,Y,Z   is equivalent  to a cutoff of  10.88, 10.88, 11.48 a.u.
   NGXF,Y,Z  is equivalent  to a cutoff of  21.76, 21.76, 22.95 a.u.

 SYSTEM =  AlMn_pv                                 
 POSCAR =  NewRef: 18, @ ['Mn', array([1.37502469, 

 Startparameter for this run:
   NWRITE =      2    write-flag & timer
   PREC   = accura    normal or accurate (medium, high low for compatibility)
   ISTART =      0    job   : 0-new  1-cont  2-samecut
   ICHARG =      2    charge: 1-file 2-atom 10-const
   ISPIN  =      2    spin polarized calculation?
   LNONCOLLINEAR =      F non collinear calculations
   LSORBIT =      F    spin-orbit coupling
   INIWAV =      1    electr: 0-lowe 1-rand  2-diag
   LASPH  =      F    aspherical Exc in radial PAW
   METAGGA=      F    non-selfconsistent MetaGGA calc.

 Electronic Relaxation 1
   ENCUT  =  404.8 eV  29.75 Ry    5.45 a.u.  13.53 13.53 11.41*2*pi/ulx,y,z
   ENINI  =  404.8     initial cutoff
   ENAUG  =  500.7 eV  augmentation charge cutoff
   NELM   =    100;   NELMIN=  4; NELMDL= -8     # of ELM steps 
   EDIFF  = 0.1E-06   stopping-criterion for ELM
   LREAL  =      F    real-space projection
   NLSPLINE    = F    spline interpolate recip. space projectors
   LCOMPAT=      F    compatible to vasp.4.4
   GGA_COMPAT  = T    GGA compatible to vasp.4.4-vasp.4.6
   LMAXPAW     = -100 max onsite density
   LMAXMIX     =    2 max onsite mixed and CHGCAR
   VOSKOWN=      0    Vosko Wilk Nusair interpolation
   ROPT   =    0.00000   0.00000
 Ionic relaxation
   EDIFFG = 0.1E-05   stopping-criterion for IOM
   NSW    =      0    number of steps for IOM
   NBLOCK =      1;   KBLOCK =      1    inner block; outer block 
   IBRION =     -1    ionic relax: 0-MD 1-quasi-New 2-CG
   NFREE  =      0    steps in history (QN), initial steepest desc. (CG)
   ISIF   =      2    stress and relaxation
   IWAVPR =     10    prediction:  0-non 1-charg 2-wave 3-comb
   ISYM   =      2    0-nonsym 1-usesym 2-fastsym
   LCORR  =      T    Harris-Foulkes like correction to forces

   POTIM  = 0.2000    time-step for ionic-motion
   TEIN   =    0.0    initial temperature
   TEBEG  =    0.0;   TEEND  =   0.0 temperature during run
   SMASS  =  -3.00    Nose mass-parameter (am)
   estimated Nose-frequenzy (Omega)   =  0.10E-29 period in steps =****** mass=  -0.156E-26a.u.
   SCALEE = 1.0000    scale energy and forces
   NPACO  =    256;   APACO  = 16.0  distance and # of slots for P.C.
   PSTRESS=    0.0 pullay stress

  Mass of Ions in am
   POMASS =  26.98 54.94
  Ionic Valenz
   ZVAL   =   3.00  7.00
  Atomic Wigner-Seitz radii
   RWIGS  =  -1.00 -1.00
  virtual crystal weights 
   VCA    =   1.00  1.00
   NELECT =     180.0000    total number of electrons
   NUPDOWN=      -1.0000    fix difference up-down

 DOS related values:
   EMIN   =  10.00;   EMAX   =-10.00  energy-range for DOS
   EFERMI =   0.00
   ISMEAR =     1;   SIGMA  =   0.20  broadening in eV -4-tet -1-fermi 0-gaus

 Electronic relaxation 2 (details)
   IALGO  =     58    algorithm
   LDIAG  =      T    sub-space diagonalisation (order eigenvalues)
   LSUBROT=      F    optimize rotation matrix (better conditioning)
   TURBO    =      0    0=normal 1=particle mesh
   IRESTART =      0    0=no restart 2=restart with 2 vectors
   NREBOOT  =      0    no. of reboots
   NMIN     =      0    reboot dimension
   EREF     =   0.00    reference energy to select bands
   IMIX   =      4    mixing-type and parameters
     AMIX     =   0.40;   BMIX     =  1.00
     AMIX_MAG =   1.60;   BMIX_MAG =  1.00
     AMIN     =   0.10
     WC   =   100.;   INIMIX=   1;  MIXPRE=   1;  MAXMIX= -45

 Intra band minimization:
   WEIMIN = 0.0000     energy-eigenvalue tresh-hold
   EBREAK =  0.23E-09  absolut break condition
   DEPER  =   0.30     relativ break condition  

   TIME   =   0.40     timestep for ELM

  volume/ion in A,a.u.               =      13.15        88.72
  Fermi-wavevector in a.u.,A,eV,Ry     =   1.186118  2.241439 19.141722  1.406877
  Thomas-Fermi vector in A             =   2.322298
 
 Write flags
   LWAVE        =      F    write WAVECAR
   LDOWNSAMPLE  =      F    k-point downsampling of WAVECAR
   LCHARG       =      F    write CHGCAR
   LVTOT        =      F    write LOCPOT, total local potential
   LVHAR        =      F    write LOCPOT, Hartree potential only
   LELF         =      F    write electronic localiz. function (ELF)
   LORBIT       =     10    0 simple, 1 ext, 2 COOP (PROOUT), +10 PAW based schemes


 Dipole corrections
   LMONO  =      F    monopole corrections only (constant potential shift)
   LDIPOL =      F    correct potential (dipole corrections)
   IDIPOL =      0    1-x, 2-y, 3-z, 4-all directions 
   EPSILON=  1.0000000 bulk dielectric constant

 Exchange correlation treatment:
   GGA     =    --    GGA type
   LEXCH   =     8    internal setting for exchange type
   VOSKOWN=      0    Vosko Wilk Nusair interpolation
   LHFCALC =     F    Hartree Fock is set to
   LHFONE  =     F    Hartree Fock one center treatment
   AEXX    =    0.0000 exact exchange contribution

 Linear response parameters
   LEPSILON=     F    determine dielectric tensor
   LRPA    =     F    only Hartree local field effects (RPA)
   LNABLA  =     F    use nabla operator in PAW spheres
   LVEL    =     F    velocity operator in full k-point grid
   LINTERFAST=   F  fast interpolation
   KINTER  =     0    interpolate to denser k-point grid
   CSHIFT  =0.1000    complex shift for real part using Kramers Kronig
   OMEGAMAX=  -1.0    maximum frequency
   DEG_THRESHOLD= 0.2000000E-02 threshold for treating states as degnerate
   RTIME   =   -0.100 relaxation time in fs
  (WPLASMAI=    0.000 imaginary part of plasma frequency in eV, 0.658/RTIME)
   DFIELD  = 0.0000000 0.0000000 0.0000000 field for delta impulse in time
 
 Orbital magnetization related:
   ORBITALMAG=     F  switch on orbital magnetization
   LCHIMAG   =     F  perturbation theory with respect to B field
   DQ        =  0.001000  dq finite difference perturbation B field
   LLRAUG    =     F  two centre corrections for induced B field



--------------------------------------------------------------------------------------------------------


 Static calculation
 charge density and potential will be updated during run
 spin polarized calculation
 Conjugate gradient for all bands (Freysoldt, et al. PRB 79, 241103 (2009))
 preconditioned conjugated gradient                                        
 perform sub-space diagonalisation
    before iterative eigenvector-optimisation
 modified Broyden-mixing scheme, WC =      100.0
 initial mixing is a Kerker type mixing with AMIX =  0.4000 and BMIX =      1.0000
 Hartree-type preconditioning will be used
 using additional bands           18
 reciprocal scheme for non local part
 use partial core corrections
 no Harris-corrections to forces 
 use gradient corrections 
 use of overlap-Matrix (Vanderbilt PP)
 Methfessel and Paxton  Order N= 1 SIGMA  =   0.20


--------------------------------------------------------------------------------------------------------


  energy-cutoff  :      404.80
  volume of cell :      473.27
      direct lattice vectors                 reciprocal lattice vectors
     8.250148166  0.000000000  0.000000000     0.121209944  0.000000000  0.000000000
     0.000000000  8.250148166  0.000000000     0.000000000  0.121209944  0.000000000
     0.000000000  0.000000000  6.953274261     0.000000000  0.000000000  0.143817137

  length of vectors
     8.250148166  8.250148166  6.953274261     0.121209944  0.121209944  0.143817137


 
 k-points in units of 2pi/SCALE and weight: automatic KPOINTS                       
   0.00000000  0.00000000  0.00000000       0.007
   0.02424199  0.00000000  0.00000000       0.013
   0.04848398  0.00000000  0.00000000       0.013
   0.00000000  0.02424199  0.00000000       0.013
   0.02424199  0.02424199  0.00000000       0.013
   0.04848398  0.02424199  0.00000000       0.013
  -0.04848398  0.02424199  0.00000000       0.013
  -0.02424199  0.02424199  0.00000000       0.013
   0.00000000  0.04848398  0.00000000       0.013
   0.02424199  0.04848398  0.00000000       0.013
   0.04848398  0.04848398  0.00000000       0.013
  -0.04848398  0.04848398  0.00000000       0.013
  -0.02424199  0.04848398  0.00000000       0.013
   0.00000000  0.00000000  0.02396952       0.013
   0.02424199  0.00000000  0.02396952       0.027
   0.04848398  0.00000000  0.02396952       0.027
   0.00000000  0.02424199  0.02396952       0.027
   0.02424199  0.02424199  0.02396952       0.027
   0.04848398  0.02424199  0.02396952       0.027
  -0.04848398  0.02424199  0.02396952       0.027
  -0.02424199  0.02424199  0.02396952       0.027
   0.00000000  0.04848398  0.02396952       0.027
   0.02424199  0.04848398  0.02396952       0.027
   0.04848398  0.04848398  0.02396952       0.027
  -0.04848398  0.04848398  0.02396952       0.027
  -0.02424199  0.04848398  0.02396952       0.027
   0.00000000  0.00000000  0.04793905       0.013
   0.02424199  0.00000000  0.04793905       0.027
   0.04848398  0.00000000  0.04793905       0.027
   0.00000000  0.02424199  0.04793905       0.027
   0.02424199  0.02424199  0.04793905       0.027
   0.04848398  0.02424199  0.04793905       0.027
  -0.04848398  0.02424199  0.04793905       0.027
  -0.02424199  0.02424199  0.04793905       0.027
   0.00000000  0.04848398  0.04793905       0.027
   0.02424199  0.04848398  0.04793905       0.027
   0.04848398  0.04848398  0.04793905       0.027
  -0.04848398  0.04848398  0.04793905       0.027
  -0.02424199  0.04848398  0.04793905       0.027
   0.00000000  0.00000000  0.07190857       0.007
   0.02424199  0.00000000  0.07190857       0.013
   0.04848398  0.00000000  0.07190857       0.013
   0.00000000  0.02424199  0.07190857       0.013
   0.02424199  0.02424199  0.07190857       0.013
   0.04848398  0.02424199  0.07190857       0.013
  -0.04848398  0.02424199  0.07190857       0.013
  -0.02424199  0.02424199  0.07190857       0.013
   0.00000000  0.04848398  0.07190857       0.013
   0.02424199  0.04848398  0.07190857       0.013
   0.04848398  0.04848398  0.07190857       0.013
  -0.04848398  0.04848398  0.07190857       0.013
  -0.02424199  0.04848398  0.07190857       0.013
 
 k-points in reciprocal lattice and weights: automatic KPOINTS                       
   0.00000000  0.00000000  0.00000000       0.007
   0.20000000  0.00000000  0.00000000       0.013
   0.40000000  0.00000000  0.00000000       0.013
   0.00000000  0.20000000  0.00000000       0.013
   0.20000000  0.20000000  0.00000000       0.013
   0.40000000  0.20000000  0.00000000       0.013
  -0.40000000  0.20000000  0.00000000       0.013
  -0.20000000  0.20000000  0.00000000       0.013
   0.00000000  0.40000000  0.00000000       0.013
   0.20000000  0.40000000  0.00000000       0.013
   0.40000000  0.40000000  0.00000000       0.013
  -0.40000000  0.40000000  0.00000000       0.013
  -0.20000000  0.40000000  0.00000000       0.013
   0.00000000  0.00000000  0.16666667       0.013
   0.20000000  0.00000000  0.16666667       0.027
   0.40000000  0.00000000  0.16666667       0.027
   0.00000000  0.20000000  0.16666667       0.027
   0.20000000  0.20000000  0.16666667       0.027
   0.40000000  0.20000000  0.16666667       0.027
  -0.40000000  0.20000000  0.16666667       0.027
  -0.20000000  0.20000000  0.16666667       0.027
   0.00000000  0.40000000  0.16666667       0.027
   0.20000000  0.40000000  0.16666667       0.027
   0.40000000  0.40000000  0.16666667       0.027
  -0.40000000  0.40000000  0.16666667       0.027
  -0.20000000  0.40000000  0.16666667       0.027
   0.00000000  0.00000000  0.33333333       0.013
   0.20000000  0.00000000  0.33333333       0.027
   0.40000000  0.00000000  0.33333333       0.027
   0.00000000  0.20000000  0.33333333       0.027
   0.20000000  0.20000000  0.33333333       0.027
   0.40000000  0.20000000  0.33333333       0.027
  -0.40000000  0.20000000  0.33333333       0.027
  -0.20000000  0.20000000  0.33333333       0.027
   0.00000000  0.40000000  0.33333333       0.027
   0.20000000  0.40000000  0.33333333       0.027
   0.40000000  0.40000000  0.33333333       0.027
  -0.40000000  0.40000000  0.33333333       0.027
  -0.20000000  0.40000000  0.33333333       0.027
   0.00000000  0.00000000  0.50000000       0.007
   0.20000000  0.00000000  0.50000000       0.013
   0.40000000  0.00000000  0.50000000       0.013
   0.00000000  0.20000000  0.50000000       0.013
   0.20000000  0.20000000  0.50000000       0.013
   0.40000000  0.20000000  0.50000000       0.013
  -0.40000000  0.20000000  0.50000000       0.013
  -0.20000000  0.20000000  0.50000000       0.013
   0.00000000  0.40000000  0.50000000       0.013
   0.20000000  0.40000000  0.50000000       0.013
   0.40000000  0.40000000  0.50000000       0.013
  -0.40000000  0.40000000  0.50000000       0.013
  -0.20000000  0.40000000  0.50000000       0.013
 
 position of ions in fractional coordinates (direct lattice) 
   0.00000000  0.00000000  0.00000000
   0.00000000  0.00000000  0.50000000
   0.00000000  0.33333333  0.00000000
   0.00000000  0.33333333  0.50000000
   0.00000000  0.66666667  0.00000000
   0.00000000  0.66666667  0.50000000
   0.33333333  0.00000000  0.00000000
   0.33333333  0.00000000  0.50000000
   0.33333333  0.33333333  0.00000000
   0.33333333  0.33333333  0.50000000
   0.33333333  0.66666667  0.00000000
   0.33333333  0.66666667  0.50000000
   0.66666667  0.00000000  0.00000000
   0.66666667  0.00000000  0.50000000
   0.66666667  0.33333333  0.00000000
   0.66666667  0.33333333  0.50000000
   0.66666667  0.66666667  0.00000000
   0.66666667  0.66666667  0.50000000
   0.16666667  0.16666667  0.25000000
   0.16666667  0.16666667  0.75000000
   0.16666667  0.50000000  0.25000000
   0.16666667  0.50000000  0.75000000
   0.16666667  0.83333333  0.25000000
   0.16666667  0.83333333  0.75000000
   0.50000000  0.16666667  0.25000000
   0.50000000  0.16666667  0.75000000
   0.50000000  0.50000000  0.25000000
   0.50000000  0.50000000  0.75000000
   0.50000000  0.83333333  0.25000000
   0.50000000  0.83333333  0.75000000
   0.83333333  0.16666667  0.25000000
   0.83333333  0.16666667  0.75000000
   0.83333333  0.50000000  0.25000000
   0.83333333  0.50000000  0.75000000
   0.83333333  0.83333333  0.25000000
   0.83333333  0.83333333  0.75000000
 
 position of ions in cartesian coordinates  (Angst):
   0.00000000  0.00000000  0.00000000
   0.00000000  0.00000000  3.47663713
   0.00000000  2.75004939  0.00000000
   0.00000000  2.75004939  3.47663713
   0.00000000  5.50009878  0.00000000
   0.00000000  5.50009878  3.47663713
   2.75004939  0.00000000  0.00000000
   2.75004939  0.00000000  3.47663713
   2.75004939  2.75004939  0.00000000
   2.75004939  2.75004939  3.47663713
   2.75004939  5.50009878  0.00000000
   2.75004939  5.50009878  3.47663713
   5.50009878  0.00000000  0.00000000
   5.50009878  0.00000000  3.47663713
   5.50009878  2.75004939  0.00000000
   5.50009878  2.75004939  3.47663713
   5.50009878  5.50009878  0.00000000
   5.50009878  5.50009878  3.47663713
   1.37502469  1.37502469  1.73831857
   1.37502469  1.37502469  5.21495570
   1.37502469  4.12507408  1.73831857
   1.37502469  4.12507408  5.21495570
   1.37502469  6.87512347  1.73831857
   1.37502469  6.87512347  5.21495570
   4.12507408  1.37502469  1.73831857
   4.12507408  1.37502469  5.21495570
   4.12507408  4.12507408  1.73831857
   4.12507408  4.12507408  5.21495570
   4.12507408  6.87512347  1.73831857
   4.12507408  6.87512347  5.21495570
   6.87512347  1.37502469  1.73831857
   6.87512347  1.37502469  5.21495570
   6.87512347  4.12507408  1.73831857
   6.87512347  4.12507408  5.21495570
   6.87512347  6.87512347  1.73831857
   6.87512347  6.87512347  5.21495570
 


--------------------------------------------------------------------------------------------------------


 k-point  1 :   0.0000 0.0000 0.0000  plane waves:    8799
 k-point  2 :   0.2000 0.0000 0.0000  plane waves:    8753
 k-point  3 :   0.4000 0.0000 0.0000  plane waves:    8757
 k-point  4 :   0.0000 0.2000 0.0000  plane waves:    8753
 k-point  5 :   0.2000 0.2000 0.0000  plane waves:    8767
 k-point  6 :   0.4000 0.2000 0.0000  plane waves:    8761
 k-point  7 :  -0.4000 0.2000 0.0000  plane waves:    8761
 k-point  8 :  -0.2000 0.2000 0.0000  plane waves:    8767
 k-point  9 :   0.0000 0.4000 0.0000  plane waves:    8757
 k-point 10 :   0.2000 0.4000 0.0000  plane waves:    8761
 k-point 11 :   0.4000 0.4000 0.0000  plane waves:    8731
 k-point 12 :  -0.4000 0.4000 0.0000  plane waves:    8731
 k-point 13 :  -0.2000 0.4000 0.0000  plane waves:    8761
 k-point 14 :   0.0000 0.0000 0.1667  plane waves:    8763
 k-point 15 :   0.2000 0.0000 0.1667  plane waves:    8771
 k-point 16 :   0.4000 0.0000 0.1667  plane waves:    8747
 k-point 17 :   0.0000 0.2000 0.1667  plane waves:    8771
 k-point 18 :   0.2000 0.2000 0.1667  plane waves:    8764
 k-point 19 :   0.4000 0.2000 0.1667  plane waves:    8768
 k-point 20 :  -0.4000 0.2000 0.1667  plane waves:    8768
 k-point 21 :  -0.2000 0.2000 0.1667  plane waves:    8764
 k-point 22 :   0.0000 0.4000 0.1667  plane waves:    8747
 k-point 23 :   0.2000 0.4000 0.1667  plane waves:    8768
 k-point 24 :   0.4000 0.4000 0.1667  plane waves:    8740
 k-point 25 :  -0.4000 0.4000 0.1667  plane waves:    8740
 k-point 26 :  -0.2000 0.4000 0.1667  plane waves:    8768
 k-point 27 :   0.0000 0.0000 0.3333  plane waves:    8743
 k-point 28 :   0.2000 0.0000 0.3333  plane waves:    8736
 k-point 29 :   0.4000 0.0000 0.3333  plane waves:    8753
 k-point 30 :   0.0000 0.2000 0.3333  plane waves:    8736
 k-point 31 :   0.2000 0.2000 0.3333  plane waves:    8753
 k-point 32 :   0.4000 0.2000 0.3333  plane waves:    8743
 k-point 33 :  -0.4000 0.2000 0.3333  plane waves:    8743
 k-point 34 :  -0.2000 0.2000 0.3333  plane waves:    8753
 k-point 35 :   0.0000 0.4000 0.3333  plane waves:    8753
 k-point 36 :   0.2000 0.4000 0.3333  plane waves:    8743
 k-point 37 :   0.4000 0.4000 0.3333  plane waves:    8755
 k-point 38 :  -0.4000 0.4000 0.3333  plane waves:    8755
 k-point 39 :  -0.2000 0.4000 0.3333  plane waves:    8743
 k-point 40 :   0.0000 0.0000 0.5000  plane waves:    8742
 k-point 41 :   0.2000 0.0000 0.5000  plane waves:    8756
 k-point 42 :   0.4000 0.0000 0.5000  plane waves:    8744
 k-point 43 :   0.0000 0.2000 0.5000  plane waves:    8756
 k-point 44 :   0.2000 0.2000 0.5000  plane waves:    8762
 k-point 45 :   0.4000 0.2000 0.5000  plane waves:    8732
 k-point 46 :  -0.4000 0.2000 0.5000  plane waves:    8732
 k-point 47 :  -0.2000 0.2000 0.5000  plane waves:    8762
 k-point 48 :   0.0000 0.4000 0.5000  plane waves:    8744
 k-point 49 :   0.2000 0.4000 0.5000  plane waves:    8732
 k-point 50 :   0.4000 0.4000 0.5000  plane waves:    8736
 k-point 51 :  -0.4000 0.4000 0.5000  plane waves:    8736
 k-point 52 :  -0.2000 0.4000 0.5000  plane waves:    8732

 maximum and minimum number of plane-waves per node :      2210     2164

 maximum number of plane-waves:      8799
 maximum index in each direction: 
   IXMAX=   13   IYMAX=   13   IZMAX=   11
   IXMIN=  -13   IYMIN=  -13   IZMIN=  -11


 parallel 3D FFT for wavefunctions:
    minimum data exchange during FFTs selected (reduces bandwidth)
 parallel 3D FFT for charge:
    minimum data exchange during FFTs selected (reduces bandwidth)


 total amount of memory used by VASP MPI-rank0   728596. kBytes
=======================================================================

   base      :      30000. kBytes
   nonl-proj :      34307. kBytes
   fftplans  :      21726. kBytes
   grid      :      14732. kBytes
   one-center:        279. kBytes
   wavefun   :     627552. kBytes
 
     INWAV:  cpu time    0.0001: real time    0.0001
 Broyden mixing: mesh for mixing (old mesh)
   NGX = 27   NGY = 27   NGZ = 23
  (NGX  =108   NGY  =108   NGZ  = 96)
  gives a total of  16767 points

 initial charge density was supplied:
 charge density of overlapping atoms calculated
 number of electron     180.0000000 magnetization      -6.0000000
 keeping initial charge density in first step


--------------------------------------------------------------------------------------------------------


 Maximum index for augmentation-charges        11261 (set IRDMAX)


--------------------------------------------------------------------------------------------------------


 First call to EWALD:  gamma=   0.227
 Maximum number of real-space cells 3x 3x 3
 Maximum number of reciprocal cells 3x 3x 3

    FEWALD:  cpu time    0.0053: real time    0.0053


--------------------------------------- Iteration      1(   1)  ---------------------------------------


    POTLOK:  cpu time    0.2540: real time    0.2542
    SETDIJ:  cpu time    0.3203: real time    0.3203
    TRIAL :  cpu time   17.7083: real time   17.8380
    CORREC:  cpu time    0.0063: real time    0.0064
    --------------------------------------------
      LOOP:  cpu time   18.4936: real time   18.6752

 eigenvalue-minimisations  : 22464
 total energy-change (2. order) : 0.1360050E+04  (-0.5804753E+04)
 number of electron     180.0000000 magnetization      -6.0000000
 augmentation part      180.0000000 magnetization      -6.0000000

 Free energy of the ion-electron system (eV)
  ---------------------------------------------------
  alpha Z        PSCENC =       532.25742704
  Ewald energy   TEWEN  =     -8601.05107233
  -Hartree energ DENC   =     -1903.73857242
  -exchange      EXHF   =         0.00000000
  -V(xc)+E(xc)   XCENC  =      -664.68843502
  PAW double counting   =      8494.55058411    -7650.81563588
  entropy T*S    EENTRO =         0.00110489
  eigenvalues    EBANDS =      2688.41897046
  atomic energy  EATOM  =      8465.11600846
  ---------------------------------------------------
  free energy    TOTEN  =      1360.05037932 eV

  energy without entropy =     1360.04927442  energy(sigma->0) =     1360.05001102


--------------------------------------------------------------------------------------------------------




--------------------------------------- Iteration      1(   2)  ---------------------------------------


    TRIAL :  cpu time   18.3934: real time   18.4423
    CORREC:  cpu time    0.0079: real time    0.0080
    --------------------------------------------
      LOOP:  cpu time   18.4061: real time   18.4553

 eigenvalue-minimisations  : 22464
 total energy-change (2. order) :-0.1409219E+04  (-0.1383176E+04)
 number of electron     180.0000000 magnetization      -6.0000000
 augmentation part      180.0000000 magnetization      -6.0000000

 Free energy of the ion-electron system (eV)
  ---------------------------------------------------
  alpha Z        PSCENC =       532.25742704
  Ewald energy   TEWEN  =     -8601.05107233
  -Hartree energ DENC   =     -1903.73857242
  -exchange      EXHF   =         0.00000000
  -V(xc)+E(xc)   XCENC  =      -664.68843502
  PAW double counting   =      8494.55058411    -7650.81563588
  entropy T*S    EENTRO =        -0.00011863
  eigenvalues    EBANDS =      1279.20124570
  atomic energy  EATOM  =      8465.11600846
  ---------------------------------------------------
  free energy    TOTEN  =       -49.16856896 eV

  energy without entropy =      -49.16845033  energy(sigma->0) =      -49.16852942


--------------------------------------------------------------------------------------------------------




--------------------------------------- Iteration      1(   3)  ---------------------------------------


    TRIAL :  cpu time   24.4237: real time   25.4282
    CORREC:  cpu time    0.0092: real time    0.0101
    --------------------------------------------
      LOOP:  cpu time   24.4337: real time   25.4413

 eigenvalue-minimisations  : 34440
 total energy-change (2. order) :-0.1857951E+03  (-0.1696523E+03)
 number of electron     180.0000000 magnetization      -6.0000000
 augmentation part      180.0000000 magnetization      -6.0000000

 Free energy of the ion-electron system (eV)
  ---------------------------------------------------
  alpha Z        PSCENC =       532.25742704
  Ewald energy   TEWEN  =     -8601.05107233
  -Hartree energ DENC   =     -1903.73857242
  -exchange      EXHF   =         0.00000000
  -V(xc)+E(xc)   XCENC  =      -664.68843502
  PAW double counting   =      8494.55058411    -7650.81563588
  entropy T*S    EENTRO =         0.00238130
  eigenvalues    EBANDS =      1093.40368962
  atomic energy  EATOM  =      8465.11600846
  ---------------------------------------------------
  free energy    TOTEN  =      -234.96362513 eV

  energy without entropy =     -234.96600642  energy(sigma->0) =     -234.96441889


--------------------------------------------------------------------------------------------------------




--------------------------------------- Iteration      1(   4)  ---------------------------------------


    TRIAL :  cpu time   26.0896: real time   26.2303
    CORREC:  cpu time    0.0096: real time    0.0098
    --------------------------------------------
      LOOP:  cpu time   26.1020: real time   26.2456

 eigenvalue-minimisations  : 36920
 total energy-change (2. order) :-0.3068209E+02  (-0.2775052E+02)
 number of electron     180.0000000 magnetization      -6.0000000
 augmentation part      180.0000000 magnetization      -6.0000000

 Free energy of the ion-electron system (eV)
  ---------------------------------------------------
  alpha Z        PSCENC =       532.25742704
  Ewald energy   TEWEN  =     -8601.05107233
  -Hartree energ DENC   =     -1903.73857242
  -exchange      EXHF   =         0.00000000
  -V(xc)+E(xc)   XCENC  =      -664.68843502
  PAW double counting   =      8494.55058411    -7650.81563588
  entropy T*S    EENTRO =         0.02163888
  eigenvalues    EBANDS =      1062.70234564
  atomic energy  EATOM  =      8465.11600846
  ---------------------------------------------------
  free energy    TOTEN  =      -265.64571152 eV

  energy without entropy =     -265.66735040  energy(sigma->0) =     -265.65292448


--------------------------------------------------------------------------------------------------------




--------------------------------------- Iteration      1(   5)  ---------------------------------------


    TRIAL :  cpu time   26.6741: real time   27.6639
    CORREC:  cpu time    0.0099: real time    0.0108
    --------------------------------------------
      LOOP:  cpu time   26.7064: real time   27.6991

 eigenvalue-minimisations  : 38064
 total energy-change (2. order) :-0.3651702E+01  (-0.3468551E+01)
 number of electron     180.0000000 magnetization      -6.0000000
 augmentation part      180.0000000 magnetization      -6.0000000

 Free energy of the ion-electron system (eV)
  ---------------------------------------------------
  alpha Z        PSCENC =       532.25742704
  Ewald energy   TEWEN  =     -8601.05107233
  -Hartree energ DENC   =     -1903.73857242
  -exchange      EXHF   =         0.00000000
  -V(xc)+E(xc)   XCENC  =      -664.68843502
  PAW double counting   =      8494.55058411    -7650.81563588
  entropy T*S    EENTRO =         0.03047340
  eigenvalues    EBANDS =      1059.04180898
  atomic energy  EATOM  =      8465.11600846
  ---------------------------------------------------
  free energy    TOTEN  =      -269.29741366 eV

  energy without entropy =     -269.32788706  energy(sigma->0) =     -269.30757146


--------------------------------------------------------------------------------------------------------




--------------------------------------- Iteration      1(   6)  ---------------------------------------


    TRIAL :  cpu time   26.5553: real time   26.7296
    CORREC:  cpu time    0.0098: real time    0.0107
    --------------------------------------------
      LOOP:  cpu time   26.5681: real time   26.7457

 eigenvalue-minimisations  : 37704
 total energy-change (2. order) :-0.3506442E+00  (-0.3383614E+00)
 number of electron     180.0000000 magnetization      -6.0000000
 augmentation part      180.0000000 magnetization      -6.0000000

 Free energy of the ion-electron system (eV)
  ---------------------------------------------------
  alpha Z        PSCENC =       532.25742704
  Ewald energy   TEWEN  =     -8601.05107233
  -Hartree energ DENC   =     -1903.73857242
  -exchange      EXHF   =         0.00000000
  -V(xc)+E(xc)   XCENC  =      -664.68843502
  PAW double counting   =      8494.55058411    -7650.81563588
  entropy T*S    EENTRO =         0.03367565
  eigenvalues    EBANDS =      1058.68796256
  atomic energy  EATOM  =      8465.11600846
  ---------------------------------------------------
  free energy    TOTEN  =      -269.64805783 eV

  energy without entropy =     -269.68173348  energy(sigma->0) =     -269.65928304


--------------------------------------------------------------------------------------------------------




--------------------------------------- Iteration      1(   7)  ---------------------------------------


    TRIAL :  cpu time   26.9357: real time   27.8085
    CORREC:  cpu time    0.0099: real time    0.0100
    --------------------------------------------
      LOOP:  cpu time   26.9521: real time   27.8253

 eigenvalue-minimisations  : 38544
 total energy-change (2. order) :-0.4658388E-01  (-0.4548457E-01)
 number of electron     180.0000000 magnetization      -6.0000000
 augmentation part      180.0000000 magnetization      -6.0000000

 Free energy of the ion-electron system (eV)
  ---------------------------------------------------
  alpha Z        PSCENC =       532.25742704
  Ewald energy   TEWEN  =     -8601.05107233
  -Hartree energ DENC   =     -1903.73857242
  -exchange      EXHF   =         0.00000000
  -V(xc)+E(xc)   XCENC  =      -664.68843502
  PAW double counting   =      8494.55058411    -7650.81563588
  entropy T*S    EENTRO =         0.03484230
  eigenvalues    EBANDS =      1058.64021203
  atomic energy  EATOM  =      8465.11600846
  ---------------------------------------------------
  free energy    TOTEN  =      -269.69464171 eV

  energy without entropy =     -269.72948401  energy(sigma->0) =     -269.70625581


--------------------------------------------------------------------------------------------------------




--------------------------------------- Iteration      1(   8)  ---------------------------------------


    TRIAL :  cpu time   26.1839: real time   26.3818
    CORREC:  cpu time    0.0101: real time    0.0109
    CHARGE:  cpu time    1.0570: real time    1.0572
    --------------------------------------------
      LOOP:  cpu time   27.2551: real time   27.4570

 eigenvalue-minimisations  : 37000
 total energy-change (2. order) :-0.6350714E-02  (-0.6241824E-02)
 number of electron     179.9999997 magnetization      -4.3848873
 augmentation part       42.5397333 magnetization      -2.5600474

 Free energy of the ion-electron system (eV)
  ---------------------------------------------------
  alpha Z        PSCENC =       532.25742704
  Ewald energy   TEWEN  =     -8601.05107233
  -Hartree energ DENC   =     -1903.73857242
  -exchange      EXHF   =         0.00000000
  -V(xc)+E(xc)   XCENC  =      -664.68843502
  PAW double counting   =      8494.55058411    -7650.81563588
  entropy T*S    EENTRO =         0.03540342
  eigenvalues    EBANDS =      1058.63330019
  atomic energy  EATOM  =      8465.11600846
  ---------------------------------------------------
  free energy    TOTEN  =      -269.70099242 eV

  energy without entropy =     -269.73639584  energy(sigma->0) =     -269.71279356


--------------------------------------------------------------------------------------------------------




--------------------------------------- Iteration      1(   9)  ---------------------------------------


    POTLOK:  cpu time    0.2537: real time    0.2537
    SETDIJ:  cpu time    0.3438: real time    0.3441
    TRIAL :  cpu time    8.7131: real time    8.7391
    CORREC:  cpu time    3.3200: real time    3.3407
    CHARGE:  cpu time    1.0774: real time    1.0779
    --------------------------------------------
      LOOP:  cpu time   13.7118: real time   13.7594

 eigenvalue-minimisations  :     0
 total energy-change (2. order) : 0.2070787E+03  (-0.1477600E+03)
 number of electron     179.9999997 magnetization      -4.2543349
 augmentation part       54.6398156 magnetization      -2.7642494

 Free energy of the ion-electron system (eV)
  ---------------------------------------------------
  alpha Z        PSCENC =       532.25742704
  Ewald energy   TEWEN  =     -8601.05107233
  -Hartree energ DENC   =      -838.47803070
  -exchange      EXHF   =         0.00000000
  -V(xc)+E(xc)   XCENC  =      -694.75036350
  PAW double counting   =     12751.82379611   -11804.78519906
  entropy T*S    EENTRO =         0.00778776
  eigenvalues    EBANDS =       127.20969295
  atomic energy  EATOM  =      8465.11600846
  ---------------------------------------------------
  free energy    TOTEN  =       -62.62233761 eV

  energy without entropy =      -62.63012538  energy(sigma->0) =      -62.62493354


--------------------------------------------------------------------------------------------------------




--------------------------------------- Iteration      1(  10)  ---------------------------------------


    POTLOK:  cpu time    0.2490: real time    0.2490
    SETDIJ:  cpu time    0.3204: real time    0.3206
    TRIAL :  cpu time    9.3789: real time    9.4282
    CORREC:  cpu time    3.3265: real time    3.9834
    CHARGE:  cpu time    1.0530: real time    1.1020
    --------------------------------------------
      LOOP:  cpu time   14.3299: real time   15.0861

 eigenvalue-minimisations  :     0
 total energy-change (2. order) :-0.1462383E+03  (-0.9180044E+01)
 number of electron     179.9999996 magnetization      -4.2067541
 augmentation part       57.8935957 magnetization      -2.8813724

 Free energy of the ion-electron system (eV)
  ---------------------------------------------------
  alpha Z        PSCENC =       532.25742704
  Ewald energy   TEWEN  =     -8601.05107233
  -Hartree energ DENC   =     -1384.48150316
  -exchange      EXHF   =         0.00000000
  -V(xc)+E(xc)   XCENC  =      -676.06823751
  PAW double counting   =     13701.05992850   -12873.15951815
  entropy T*S    EENTRO =         0.00119923
  eigenvalues    EBANDS =       627.45856346
  atomic energy  EATOM  =      8465.11600846
  ---------------------------------------------------
  free energy    TOTEN  =      -208.86061593 eV

  energy without entropy =     -208.86181516  energy(sigma->0) =     -208.86101568


--------------------------------------------------------------------------------------------------------




--------------------------------------- Iteration      1(  11)  ---------------------------------------


    POTLOK:  cpu time    0.2492: real time    0.2492
    SETDIJ:  cpu time    0.3426: real time    0.3426
    TRIAL :  cpu time    8.6773: real time    8.8028
    CORREC:  cpu time    3.3267: real time    3.3344
    CHARGE:  cpu time    1.0454: real time    1.0875
    --------------------------------------------
      LOOP:  cpu time   13.6450: real time   13.8212

 eigenvalue-minimisations  :     0
 total energy-change (2. order) :-0.9222668E+01  (-0.9259793E+01)
 number of electron     179.9999996 magnetization      -4.0068344
 augmentation part       59.1864451 magnetization      -2.8017599

 Free energy of the ion-electron system (eV)
  ---------------------------------------------------
  alpha Z        PSCENC =       532.25742704
  Ewald energy   TEWEN  =     -8601.05107233
  -Hartree energ DENC   =     -1573.64921588
  -exchange      EXHF   =         0.00000000
  -V(xc)+E(xc)   XCENC  =      -669.33614124
  PAW double counting   =     14469.17197377   -13674.21532495
  entropy T*S    EENTRO =        -0.00545617
  eigenvalues    EBANDS =       833.62186221
  atomic energy  EATOM  =      8465.11600846
  ---------------------------------------------------
  free energy    TOTEN  =      -218.08328370 eV

  energy without entropy =     -218.07782753  energy(sigma->0) =     -218.08146497


--------------------------------------------------------------------------------------------------------




--------------------------------------- Iteration      1(  12)  ---------------------------------------


    POTLOK:  cpu time    0.2494: real time    0.2495
    SETDIJ:  cpu time    0.3420: real time    0.3420
    TRIAL :  cpu time    8.7438: real time    8.8165
    CORREC:  cpu time    3.2972: real time    3.3527
    CHARGE:  cpu time    1.0515: real time    1.0520
    --------------------------------------------
      LOOP:  cpu time   13.6873: real time   13.8172

 eigenvalue-minimisations  :     0
 total energy-change (2. order) :-0.9275264E+01  (-0.5692097E+01)
 number of electron     179.9999996 magnetization      -3.8811598
 augmentation part       58.2042071 magnetization      -2.7475768

 Free energy of the ion-electron system (eV)
  ---------------------------------------------------
  alpha Z        PSCENC =       532.25742704
  Ewald energy   TEWEN  =     -8601.05107233
  -Hartree energ DENC   =     -1708.77246101
  -exchange      EXHF   =         0.00000000
  -V(xc)+E(xc)   XCENC  =      -664.91885170
  PAW double counting   =     14452.37481762   -13656.01123017
  entropy T*S    EENTRO =        -0.00590211
  eigenvalues    EBANDS =       953.65227039
  atomic energy  EATOM  =      8465.11600846
  ---------------------------------------------------
  free energy    TOTEN  =      -227.35854788 eV

  energy without entropy =     -227.35264578  energy(sigma->0) =     -227.35658052


--------------------------------------------------------------------------------------------------------




--------------------------------------- Iteration      1(  13)  ---------------------------------------


    POTLOK:  cpu time    0.2494: real time    0.2495
    SETDIJ:  cpu time    0.3212: real time    0.3212
    TRIAL :  cpu time    8.7305: real time    8.7675
    CORREC:  cpu time    3.2591: real time    3.2606
    CHARGE:  cpu time    1.0531: real time    1.0788
    --------------------------------------------
      LOOP:  cpu time   13.6536: real time   13.7185

 eigenvalue-minimisations  :     0
 total energy-change (2. order) :-0.5621853E+01  (-0.9462416E+00)
 number of electron     179.9999997 magnetization      -3.8290442
 augmentation part       57.3306233 magnetization      -2.6944083

 Free energy of the ion-electron system (eV)
  ---------------------------------------------------
  alpha Z        PSCENC =       532.25742704
  Ewald energy   TEWEN  =     -8601.05107233
  -Hartree energ DENC   =     -1699.81695267
  -exchange      EXHF   =         0.00000000
  -V(xc)+E(xc)   XCENC  =      -665.59104907
  PAW double counting   =     14204.73004078   -13384.20001936
  entropy T*S    EENTRO =        -0.00474862
  eigenvalues    EBANDS =       915.58111878
  atomic energy  EATOM  =      8465.11600846
  ---------------------------------------------------
  free energy    TOTEN  =      -232.98040048 eV

  energy without entropy =     -232.97565186  energy(sigma->0) =     -232.97881760


--------------------------------------------------------------------------------------------------------




--------------------------------------- Iteration      1(  14)  ---------------------------------------


    POTLOK:  cpu time    0.2492: real time    0.2493
    SETDIJ:  cpu time    0.3190: real time    0.3190
    TRIAL :  cpu time    9.3904: real time    9.4016
    CORREC:  cpu time    3.2857: real time    3.3865
    CHARGE:  cpu time    1.3748: real time    2.0306
    --------------------------------------------
      LOOP:  cpu time   14.6255: real time   15.3939

 eigenvalue-minimisations  :     0
 total energy-change (2. order) :-0.9381544E+00  (-0.8457816E+00)
 number of electron     179.9999996 magnetization      -3.7207375
 augmentation part       57.2485787 magnetization      -2.5854222

 Free energy of the ion-electron system (eV)
  ---------------------------------------------------
  alpha Z        PSCENC =       532.25742704
  Ewald energy   TEWEN  =     -8601.05107233
  -Hartree energ DENC   =     -1654.57749156
  -exchange      EXHF   =         0.00000000
  -V(xc)+E(xc)   XCENC  =      -667.25351473
  PAW double counting   =     13888.30455234   -13054.83151093
  entropy T*S    EENTRO =        -0.00167424
  eigenvalues    EBANDS =       858.12179546
  atomic energy  EATOM  =      8465.11600846
  ---------------------------------------------------
  free energy    TOTEN  =      -233.91855488 eV

  energy without entropy =     -233.91688063  energy(sigma->0) =     -233.91799680


--------------------------------------------------------------------------------------------------------




--------------------------------------- Iteration      1(  15)  ---------------------------------------


    POTLOK:  cpu time    0.2480: real time    0.2483
    SETDIJ:  cpu time    0.3283: real time    0.3289
    TRIAL :  cpu time    8.7208: real time    8.8915
    CORREC:  cpu time    3.3067: real time    3.3185
    CHARGE:  cpu time    1.0510: real time    1.0533
    --------------------------------------------
      LOOP:  cpu time   13.6820: real time   13.8694

 eigenvalue-minimisations  :     0
 total energy-change (2. order) :-0.8451946E+00  (-0.4905539E+00)
 number of electron     179.9999996 magnetization      -3.6353367
 augmentation part       57.7654414 magnetization      -2.5275476

 Free energy of the ion-electron system (eV)
  ---------------------------------------------------
  alpha Z        PSCENC =       532.25742704
  Ewald energy   TEWEN  =     -8601.05107233
  -Hartree energ DENC   =     -1639.46206773
  -exchange      EXHF   =         0.00000000
  -V(xc)+E(xc)   XCENC  =      -667.74820526
  PAW double counting   =     13341.48807657   -12503.61675006
  entropy T*S    EENTRO =         0.00029785
  eigenvalues    EBANDS =       838.25450812
  atomic energy  EATOM  =      8465.11600846
  ---------------------------------------------------
  free energy    TOTEN  =      -234.76374944 eV

  energy without entropy =     -234.76404729  energy(sigma->0) =     -234.76384873


--------------------------------------------------------------------------------------------------------




--------------------------------------- Iteration      1(  16)  ---------------------------------------


    POTLOK:  cpu time    0.2484: real time    0.2484
    SETDIJ:  cpu time    0.3424: real time    0.3424
    TRIAL :  cpu time    8.7156: real time    8.8185
    CORREC:  cpu time    3.3167: real time    3.3183
    CHARGE:  cpu time    1.0193: real time    1.0611
    --------------------------------------------
      LOOP:  cpu time   13.6484: real time   13.7945

 eigenvalue-minimisations  :     0
 total energy-change (2. order) :-0.4892240E+00  (-0.1702263E+00)
 number of electron     179.9999996 magnetization      -3.5993132
 augmentation part       58.1213266 magnetization      -2.5159788

 Free energy of the ion-electron system (eV)
  ---------------------------------------------------
  alpha Z        PSCENC =       532.25742704
  Ewald energy   TEWEN  =     -8601.05107233
  -Hartree energ DENC   =     -1658.07922727
  -exchange      EXHF   =         0.00000000
  -V(xc)+E(xc)   XCENC  =      -666.99405513
  PAW double counting   =     13075.32118773   -12241.38144119
  entropy T*S    EENTRO =         0.00181064
  eigenvalues    EBANDS =       859.55790145
  atomic energy  EATOM  =      8465.11600846
  ---------------------------------------------------
  free energy    TOTEN  =      -235.25297340 eV

  energy without entropy =     -235.25478403  energy(sigma->0) =     -235.25357694


--------------------------------------------------------------------------------------------------------




--------------------------------------- Iteration      1(  17)  ---------------------------------------


    POTLOK:  cpu time    0.2492: real time    0.2492
    SETDIJ:  cpu time    0.3225: real time    0.3226
    TRIAL :  cpu time    8.7369: real time    8.7887
    CORREC:  cpu time    3.3116: real time    3.3130
    CHARGE:  cpu time    1.0731: real time    1.0741
    --------------------------------------------
      LOOP:  cpu time   13.6948: real time   13.7501

 eigenvalue-minimisations  :     0
 total energy-change (2. order) :-0.1699298E+00  (-0.2074717E+00)
 number of electron     179.9999996 magnetization      -3.4708329
 augmentation part       58.2560745 magnetization      -2.4637557

 Free energy of the ion-electron system (eV)
  ---------------------------------------------------
  alpha Z        PSCENC =       532.25742704
  Ewald energy   TEWEN  =     -8601.05107233
  -Hartree energ DENC   =     -1673.58371558
  -exchange      EXHF   =         0.00000000
  -V(xc)+E(xc)   XCENC  =      -666.31953507
  PAW double counting   =     13017.48584820   -12187.25626828
  entropy T*S    EENTRO =         0.00335061
  eigenvalues    EBANDS =       877.92659374
  atomic energy  EATOM  =      8465.11600846
  ---------------------------------------------------
  free energy    TOTEN  =      -235.42290320 eV

  energy without entropy =     -235.42625381  energy(sigma->0) =     -235.42402007


--------------------------------------------------------------------------------------------------------




--------------------------------------- Iteration      1(  18)  ---------------------------------------


    POTLOK:  cpu time    0.2499: real time    0.2499
    SETDIJ:  cpu time    0.3203: real time    0.3204
    TRIAL :  cpu time    9.6246: real time    9.6416
    CORREC:  cpu time    3.2696: real time    3.2858
    CHARGE:  cpu time    1.0982: real time    1.1256
    --------------------------------------------
      LOOP:  cpu time   14.5650: real time   14.6264

 eigenvalue-minimisations  :     0
 total energy-change (2. order) :-0.2074556E+00  (-0.1120990E+00)
 number of electron     179.9999996 magnetization      -3.4434505
 augmentation part       58.0248950 magnetization      -2.4506706

 Free energy of the ion-electron system (eV)
  ---------------------------------------------------
  alpha Z        PSCENC =       532.25742704
  Ewald energy   TEWEN  =     -8601.05107233
  -Hartree energ DENC   =     -1677.39685141
  -exchange      EXHF   =         0.00000000
  -V(xc)+E(xc)   XCENC  =      -665.95857054
  PAW double counting   =     12972.72448169   -12144.15334218
  entropy T*S    EENTRO =         0.00431142
  eigenvalues    EBANDS =       882.82820987
  atomic energy  EATOM  =      8465.11600846
  ---------------------------------------------------
  free energy    TOTEN  =      -235.63035880 eV

  energy without entropy =     -235.63467022  energy(sigma->0) =     -235.63179594


--------------------------------------------------------------------------------------------------------




--------------------------------------- Iteration      1(  19)  ---------------------------------------


    POTLOK:  cpu time    0.2487: real time    0.2491
    SETDIJ:  cpu time    0.3193: real time    0.3194
    TRIAL :  cpu time    8.6212: real time    9.4695
    CORREC:  cpu time    3.3414: real time    3.4017
    CHARGE:  cpu time    1.0505: real time    1.0507
    --------------------------------------------
      LOOP:  cpu time   13.5824: real time   14.4925

 eigenvalue-minimisations  :     0
 total energy-change (2. order) :-0.1117142E+00  (-0.4938169E-01)
 number of electron     179.9999996 magnetization      -3.3914476
 augmentation part       57.8501968 magnetization      -2.4249387

 Free energy of the ion-electron system (eV)
  ---------------------------------------------------
  alpha Z        PSCENC =       532.25742704
  Ewald energy   TEWEN  =     -8601.05107233
  -Hartree energ DENC   =     -1664.42131344
  -exchange      EXHF   =         0.00000000
  -V(xc)+E(xc)   XCENC  =      -666.27901261
  PAW double counting   =     12947.24368781   -12116.35075829
  entropy T*S    EENTRO =         0.00470636
  eigenvalues    EBANDS =       867.73864900
  atomic energy  EATOM  =      8465.11600846
  ---------------------------------------------------
  free energy    TOTEN  =      -235.74207295 eV

  energy without entropy =     -235.74677931  energy(sigma->0) =     -235.74364174


--------------------------------------------------------------------------------------------------------




--------------------------------------- Iteration      1(  20)  ---------------------------------------


    POTLOK:  cpu time    0.2492: real time    0.2492
    SETDIJ:  cpu time    0.3310: real time    0.3417
    TRIAL :  cpu time    8.7134: real time    8.7551
    CORREC:  cpu time    3.3771: real time    3.3973
    CHARGE:  cpu time    1.0948: real time    1.0952
    --------------------------------------------
      LOOP:  cpu time   13.7811: real time   13.8552

 eigenvalue-minimisations  :     0
 total energy-change (2. order) :-0.4928719E-01  (-0.8137632E-01)
 number of electron     179.9999996 magnetization      -3.3048780
 augmentation part       57.7686893 magnetization      -2.3830871

 Free energy of the ion-electron system (eV)
  ---------------------------------------------------
  alpha Z        PSCENC =       532.25742704
  Ewald energy   TEWEN  =     -8601.05107233
  -Hartree energ DENC   =     -1656.28044350
  -exchange      EXHF   =         0.00000000
  -V(xc)+E(xc)   XCENC  =      -666.50307760
  PAW double counting   =     12939.31307597   -12106.72141439
  entropy T*S    EENTRO =         0.00573738
  eigenvalues    EBANDS =       858.07342987
  atomic energy  EATOM  =      8465.11600846
  ---------------------------------------------------
  free energy    TOTEN  =      -235.79136014 eV

  energy without entropy =     -235.79709752  energy(sigma->0) =     -235.79327260


--------------------------------------------------------------------------------------------------------




--------------------------------------- Iteration      1(  21)  ---------------------------------------


    POTLOK:  cpu time    0.2497: real time    0.2497
    SETDIJ:  cpu time    0.3347: real time    0.3347
    TRIAL :  cpu time    8.7799: real time    8.8101
    CORREC:  cpu time    3.2604: real time    3.2933
    CHARGE:  cpu time    1.0494: real time    1.0497
    --------------------------------------------
      LOOP:  cpu time   13.6763: real time   13.7404

 eigenvalue-minimisations  :     0
 total energy-change (2. order) :-0.8138644E-01  (-0.4068915E-01)
 number of electron     179.9999996 magnetization      -3.2638709
 augmentation part       57.8886712 magnetization      -2.3569353

 Free energy of the ion-electron system (eV)
  ---------------------------------------------------
  alpha Z        PSCENC =       532.25742704
  Ewald energy   TEWEN  =     -8601.05107233
  -Hartree energ DENC   =     -1655.47226066
  -exchange      EXHF   =         0.00000000
  -V(xc)+E(xc)   XCENC  =      -666.42281497
  PAW double counting   =     12957.15425550   -12124.19419895
  entropy T*S    EENTRO =         0.00615904
  eigenvalues    EBANDS =       856.73417195
  atomic energy  EATOM  =      8465.11600846
  ---------------------------------------------------
  free energy    TOTEN  =      -235.87274658 eV

  energy without entropy =     -235.87890563  energy(sigma->0) =     -235.87479960


--------------------------------------------------------------------------------------------------------




--------------------------------------- Iteration      1(  22)  ---------------------------------------


    POTLOK:  cpu time    0.2496: real time    0.2496
    SETDIJ:  cpu time    0.3373: real time    0.3373
    TRIAL :  cpu time    8.7529: real time    8.7696
    CORREC:  cpu time    3.9264: real time    3.9280
    CHARGE:  cpu time    1.0507: real time    1.0509
    --------------------------------------------
      LOOP:  cpu time   14.3190: real time   14.3393

 eigenvalue-minimisations  :     0
 total energy-change (2. order) :-0.4071252E-01  (-0.1935942E-01)
 number of electron     179.9999996 magnetization      -3.2350590
 augmentation part       57.9779609 magnetization      -2.3358541

 Free energy of the ion-electron system (eV)
  ---------------------------------------------------
  alpha Z        PSCENC =       532.25742704
  Ewald energy   TEWEN  =     -8601.05107233
  -Hartree energ DENC   =     -1663.68280556
  -exchange      EXHF   =         0.00000000
  -V(xc)+E(xc)   XCENC  =      -666.07325517
  PAW double counting   =     12982.01660354   -12150.64709235
  entropy T*S    EENTRO =         0.00657009
  eigenvalues    EBANDS =       866.14456823
  atomic energy  EATOM  =      8465.11600846
  ---------------------------------------------------
  free energy    TOTEN  =      -235.91345910 eV

  energy without entropy =     -235.92002920  energy(sigma->0) =     -235.91564913


--------------------------------------------------------------------------------------------------------




--------------------------------------- Iteration      1(  23)  ---------------------------------------


    POTLOK:  cpu time    0.2492: real time    0.2492
    SETDIJ:  cpu time    0.3410: real time    0.3412
    TRIAL :  cpu time    8.6409: real time    9.4086
    CORREC:  cpu time    3.2650: real time    3.3513
    CHARGE:  cpu time    1.0666: real time    1.0668
    --------------------------------------------
[...]
  8.437  14.378  -0.000   0.000   0.000  -0.001   0.000   0.001
 14.378  24.503  -0.001   0.000   0.001  -0.002   0.000   0.002
 -0.000  -0.001   1.996   0.000  -0.000   5.748   0.000  -0.000
  0.000   0.000   0.000   1.995   0.000   0.000   5.746   0.000
  0.000   0.001  -0.000   0.000   1.996  -0.000   0.000   5.748
 -0.001  -0.002   5.748   0.000  -0.000  16.471   0.001  -0.000
  0.000   0.000   0.000   5.746   0.000   0.001  16.467   0.001
  0.001   0.002  -0.000   0.000   5.748  -0.000   0.001  16.471
 total augmentation occupancy for first ion, spin component:           1
  4.373  -1.249  -0.001   0.002   0.000  -0.000  -0.000   0.000
 -1.249   0.376   0.001  -0.002  -0.001   0.000   0.000  -0.000
 -0.001   0.001   1.412  -0.001   0.010  -0.101   0.000  -0.001
  0.002  -0.002  -0.001   1.511  -0.005   0.000  -0.102   0.000
  0.000  -0.001   0.010  -0.005   1.409  -0.001   0.000  -0.101
 -0.000   0.000  -0.101   0.000  -0.001   0.008   0.000   0.000
 -0.000   0.000   0.000  -0.102   0.000   0.000   0.007  -0.000
  0.000  -0.000  -0.001   0.000  -0.101   0.000  -0.000   0.008
 total augmentation occupancy for first ion, spin component:           2
  0.013  -0.003   0.032  -0.001  -0.037  -0.001   0.000   0.001
 -0.003   0.002   0.004  -0.000  -0.005  -0.000   0.000   0.001
  0.032   0.004   0.004  -0.050   0.003  -0.000   0.001  -0.000
 -0.001  -0.000  -0.050  -0.001  -0.048   0.001   0.000   0.001
 -0.037  -0.005   0.003  -0.048   0.008  -0.000   0.001  -0.000
 -0.001  -0.000  -0.000   0.001  -0.000   0.000   0.000   0.000
  0.000   0.000   0.001   0.000   0.001   0.000   0.000   0.000
  0.001   0.001  -0.000   0.001  -0.000   0.000   0.000   0.000


------------------------ aborting loop because EDIFF is reached ----------------------------------------


 


 total charge     
 
# of ion       s       p       d       tot
------------------------------------------
    1        0.405   0.428   0.000   0.833
    2        0.405   0.428   0.000   0.833
    3        0.406   0.427   0.000   0.833
    4        0.406   0.428   0.000   0.834
    5        0.407   0.424   0.000   0.831
    6        0.406   0.424   0.000   0.830
    7        0.405   0.428   0.000   0.832
    8        0.405   0.427   0.000   0.832
    9        0.405   0.429   0.000   0.834
   10        0.405   0.429   0.000   0.834
   11        0.405   0.429   0.000   0.834
   12        0.405   0.429   0.000   0.834
   13        0.405   0.428   0.000   0.833
   14        0.405   0.428   0.000   0.833
   15        0.405   0.427   0.000   0.831
   16        0.405   0.427   0.000   0.832
   17        0.405   0.429   0.000   0.834
   18        0.405   0.429   0.000   0.833
   19        0.335   0.355   5.122   5.812
   20        0.330   0.354   5.143   5.828
   21        0.330   0.355   5.145   5.830
   22        0.332   0.355   5.128   5.816
   23        0.339   0.358   5.113   5.810
   24        0.338   0.352   5.127   5.817
   25        0.335   0.354   5.130   5.819
   26        0.331   0.357   5.134   5.822
   27        0.339   0.359   5.113   5.810
   28        0.339   0.356   5.117   5.811
   29        0.338   0.354   5.125   5.816
   30        0.337   0.356   5.121   5.814
   31        0.333   0.359   5.128   5.820
   32        0.334   0.352   5.136   5.822
   33        0.333   0.349   5.147   5.828
   34        0.336   0.358   5.123   5.817
   35        0.331   0.357   5.132   5.820
   36        0.333   0.354   5.141   5.827
--------------------------------------------------
tot         13.314  14.090  92.325 119.729
 


 magnetization (x)
 
# of ion       s       p       d       tot
------------------------------------------
    1        0.002   0.001   0.000   0.003
    2        0.002   0.002   0.000   0.004
    3        0.007   0.017   0.000   0.023
    4        0.006   0.016   0.000   0.022
    5        0.001  -0.000   0.000   0.000
    6        0.001  -0.000   0.000   0.001
    7       -0.001  -0.002   0.000  -0.003
    8       -0.001  -0.001   0.000  -0.002
    9       -0.003  -0.007   0.000  -0.010
   10       -0.003  -0.007   0.000  -0.011
   11       -0.004  -0.010   0.000  -0.014
   12       -0.005  -0.010   0.000  -0.015
   13        0.008   0.017   0.000   0.025
   14        0.009   0.017   0.000   0.025
   15        0.006   0.013   0.000   0.019
   16        0.006   0.013   0.000   0.018
   17        0.004   0.009   0.000   0.014
   18        0.004   0.009   0.000   0.014
   19        0.018   0.020   2.436   2.474
   20       -0.018  -0.022  -2.041  -2.081
   21       -0.028  -0.031  -2.044  -2.103
   22        0.013   0.027   2.298   2.338
   23        0.034   0.027   2.484   2.546
   24        0.028   0.009   2.515   2.553
   25        0.021   0.014   2.367   2.402
   26       -0.010  -0.011  -2.150  -2.171
   27        0.037   0.021   2.520   2.578
   28        0.038   0.022   2.535   2.595
   29       -0.042  -0.021  -2.472  -2.535
   30       -0.041  -0.022  -2.478  -2.541
   31       -0.024  -0.028  -2.178  -2.230
   32       -0.017  -0.006  -2.326  -2.349
   33       -0.020   0.002  -2.320  -2.337
   34       -0.034  -0.036  -2.308  -2.379
   35       -0.007  -0.019  -2.148  -2.174
   36        0.028   0.022   2.165   2.216
--------------------------------------------------
tot          0.014   0.046  -3.144  -3.085
 
    FORLOC:  cpu time    0.0284: real time    0.0284
    FORNL :  cpu time   13.3405: real time   13.3933
    STRESS:  cpu time   17.7273: real time   18.5090
    FORCOR:  cpu time    0.2769: real time    0.2831
    OFIELD:  cpu time    0.0018: real time    0.0018

  FORCE on cell =-STRESS in cart. coord.  units (eV):
  Direction    XX          YY          ZZ          XY          YZ          ZX
  --------------------------------------------------------------------------------------
  Alpha Z   532.25743   532.25743   532.25743
  Ewald   -2702.40749 -2702.40749 -3196.26924    -0.00000    -0.00000    -0.00000
  Hartree   718.97383   720.12075   226.62036    -0.39266    -0.00000    -0.00000
  E(xc)    -760.20943  -760.47870  -760.60398     0.13760     0.00000     0.00000
  Local     252.78470   248.82472  1259.78537     1.41561    -0.00000    -0.00000
  n-local  -108.29543  -109.49786  -119.23729     0.63135    -0.34609    -0.16597
  augment   520.24962   521.68733   515.70935    -0.58135     0.00001     0.00001
  Kinetic  1553.01895  1555.66133  1543.63721    -1.07709     0.64479     0.10051
  Fock        0.00000     0.00000     0.00000     0.00000     0.00000     0.00000
  -------------------------------------------------------------------------------------
  Total       6.37220     6.16751     1.89920     0.13348     0.00000     0.00000
  in kB      21.57184    20.87891     6.42937     0.45185     0.00000     0.00000
  external pressure =       16.29 kB  Pullay stress =        0.00 kB


 VOLUME and BASIS-vectors are now :
 -----------------------------------------------------------------------------
  energy-cutoff  :      404.80
  volume of cell :      473.27
      direct lattice vectors                 reciprocal lattice vectors
     8.250148166  0.000000000  0.000000000     0.121209944  0.000000000  0.000000000
     0.000000000  8.250148166  0.000000000     0.000000000  0.121209944  0.000000000
     0.000000000  0.000000000  6.953274261     0.000000000  0.000000000  0.143817137

  length of vectors
     8.250148166  8.250148166  6.953274261     0.121209944  0.121209944  0.143817137


 FORCES acting on ions:
    Electron-Ion                     Ewald-Force                    Non-Local-Force
 -----------------------------------------------------------------------------------------------
   -.740E-01 0.103E+00 -.223E-01   -.239E-08 -.239E-08 0.411E-08   0.296E-01 -.342E-01 -.498E-02
   -.740E-01 0.103E+00 0.223E-01   -.239E-08 -.239E-08 0.411E-08   0.296E-01 -.342E-01 0.498E-02
   -.181E+00 -.408E-01 -.101E-03   -.239E-08 -.802E-09 0.411E-08   -.215E-01 0.265E-01 -.522E-02
   -.181E+00 -.408E-01 0.101E-03   -.239E-08 -.802E-09 0.411E-08   -.215E-01 0.265E-01 0.522E-02
   -.318E-01 -.855E-01 0.541E-02   -.239E-08 0.631E-08 0.411E-08   0.188E-01 0.438E-01 0.239E-01
   -.318E-01 -.855E-01 -.541E-02   -.239E-08 0.631E-08 0.411E-08   0.188E-01 0.438E-01 -.239E-01
   0.236E-01 0.163E+00 -.602E-01   -.802E-09 -.239E-08 0.411E-08   -.410E-01 -.562E-01 0.179E-01
   0.236E-01 0.163E+00 0.602E-01   -.802E-09 -.239E-08 0.411E-08   -.410E-01 -.562E-01 -.179E-01
   0.581E-01 -.196E+00 -.450E-01   -.802E-09 -.802E-09 0.411E-08   0.265E-01 0.971E-01 0.137E-01
   0.581E-01 -.196E+00 0.450E-01   -.802E-09 -.802E-09 0.411E-08   0.265E-01 0.971E-01 -.137E-01
   -.315E-01 0.783E-01 -.121E+00   -.802E-09 0.631E-08 0.411E-08   -.313E-02 -.785E-01 0.126E-01
   -.315E-01 0.783E-01 0.121E+00   -.802E-09 0.631E-08 0.411E-08   -.313E-02 -.785E-01 -.126E-01
   0.878E-01 0.762E-01 0.120E-02   0.631E-08 -.239E-08 0.411E-08   -.369E-01 -.655E-01 -.498E-02
   0.878E-01 0.762E-01 -.120E-02   0.631E-08 -.239E-08 0.411E-08   -.369E-01 -.655E-01 0.498E-02
   0.118E+00 -.457E-01 0.373E-01   0.631E-08 -.802E-09 0.411E-08   0.411E-01 0.163E-02 -.470E-01
   0.118E+00 -.457E-01 -.373E-01   0.631E-08 -.802E-09 0.411E-08   0.411E-01 0.163E-02 0.470E-01
   0.307E-01 -.656E-01 0.109E+00   0.631E-08 0.631E-08 0.411E-08   -.102E-01 0.607E-01 0.379E-02
   0.307E-01 -.656E-01 -.109E+00   0.631E-08 0.631E-08 0.411E-08   -.102E-01 0.607E-01 -.379E-02
   0.588E+00 -.644E+00 -.383E-08   -.169E-07 -.169E-07 -.411E-08   -.464E+00 0.410E+00 0.000E+00
   0.198E+00 -.364E+00 0.156E-09   -.169E-07 -.169E-07 -.411E-08   -.771E-01 0.288E+00 0.000E+00
   -.268E+00 0.177E+00 -.568E-08   -.169E-07 0.802E-09 -.411E-08   0.487E-02 -.767E-01 0.000E+00
   0.479E+00 0.614E+00 0.404E-08   -.169E-07 0.802E-09 -.411E-08   -.429E+00 -.354E+00 0.000E+00
   0.350E+00 0.569E+00 -.815E-08   -.169E-07 0.130E-07 -.411E-08   -.271E+00 -.196E+00 0.000E+00
   -.281E+00 -.548E+00 0.167E-08   -.169E-07 0.130E-07 -.411E-08   0.158E+00 0.266E+00 0.000E+00
   -.408E+00 0.230E+00 0.264E-09   0.802E-09 -.169E-07 -.411E-08   0.209E+00 -.707E-01 0.000E+00
   -.643E-01 -.237E+00 -.625E-08   0.802E-09 -.169E-07 -.411E-08   0.945E-01 0.223E+00 0.000E+00
   0.113E+00 -.439E+00 -.149E-08   0.802E-09 0.802E-09 -.411E-08   -.170E+00 0.174E+00 0.000E+00
   -.512E+00 0.175E+00 -.199E-08   0.802E-09 0.802E-09 -.411E-08   0.332E+00 -.598E-01 0.000E+00
   0.590E+00 -.206E-01 -.409E-08   0.802E-09 0.130E-07 -.411E-08   -.340E+00 -.114E+00 0.000E+00
   0.357E-01 0.524E+00 -.457E-08   0.802E-09 0.130E-07 -.411E-08   0.118E-01 -.204E+00 0.000E+00
   -.214E+00 0.335E-01 -.109E-08   0.130E-07 -.169E-07 -.411E-08   0.209E+00 -.102E-01 0.000E+00
   -.230E+00 0.498E+00 -.190E-08   0.130E-07 -.169E-07 -.411E-08   0.192E+00 -.360E+00 0.000E+00
   0.253E+00 0.111E+00 -.311E-08   0.130E-07 0.802E-09 -.411E-08   -.263E+00 -.294E-01 0.000E+00
   -.403E+00 -.647E+00 0.221E-08   0.130E-07 0.802E-09 -.411E-08   0.317E+00 0.311E+00 0.000E+00
   -.374E+00 -.106E+00 -.590E-08   0.130E-07 0.130E-07 -.411E-08   0.378E+00 0.889E-02 0.000E+00
   0.198E+00 0.956E-01 -.487E-09   0.130E-07 0.130E-07 -.411E-08   0.478E-01 -.193E+00 0.000E+00
 -----------------------------------------------------------------------------------------------
   0.537E-01 -.322E-02 -.768E-07   -.197E-14 0.275E-13 0.265E-14   -.536E-01 0.309E-02 0.000E+00
 
 
 POSITION                                       TOTAL-FORCE (eV/Angst)
 -----------------------------------------------------------------------------------
      0.00000      0.00000      0.00000        -0.046934      0.072273     -0.026421
      0.00000      0.00000      3.47664        -0.046934      0.072273      0.026421
      0.00000      2.75005      0.00000        -0.200207     -0.016255     -0.005318
      0.00000      2.75005      3.47664        -0.200207     -0.016255      0.005318
      0.00000      5.50010      0.00000        -0.014381     -0.045957      0.027111
      0.00000      5.50010      3.47664        -0.014381     -0.045957     -0.027111
      2.75005      0.00000      0.00000        -0.014310      0.112641     -0.043933
      2.75005      0.00000      3.47664        -0.014310      0.112641      0.043933
      2.75005      2.75005      0.00000         0.081648     -0.107334     -0.032752
      2.75005      2.75005      3.47664         0.081648     -0.107334      0.032752
      2.75005      5.50010      0.00000        -0.035298      0.006289     -0.109471
      2.75005      5.50010      3.47664        -0.035298      0.006289      0.109471
      5.50010      0.00000      0.00000         0.054596      0.016281     -0.003074
      5.50010      0.00000      3.47664         0.054596      0.016281      0.003074
      5.50010      2.75005      0.00000         0.156236     -0.044546     -0.005618
      5.50010      2.75005      3.47664         0.156236     -0.044546      0.005618
      5.50010      5.50010      0.00000         0.021639     -0.010372      0.111916
      5.50010      5.50010      3.47664         0.021639     -0.010372     -0.111916
      1.37502      1.37502      1.73832         0.129042     -0.244713      0.000000
      1.37502      1.37502      5.21496         0.117772     -0.085391      0.000000
      1.37502      4.12507      1.73832        -0.263167      0.105744      0.000000
      1.37502      4.12507      5.21496         0.049791      0.271314      0.000000
      1.37502      6.87512      1.73832         0.089197      0.384648      0.000000
      1.37502      6.87512      5.21496        -0.125328     -0.298338      0.000000
      4.12507      1.37502      1.73832        -0.205305      0.157546      0.000000
      4.12507      1.37502      5.21496         0.032089     -0.006129      0.000000
      4.12507      4.12507      1.73832        -0.054160     -0.269865      0.000000
      4.12507      4.12507      5.21496        -0.193343      0.124942      0.000000
      4.12507      6.87512      1.73832         0.261128     -0.137946      0.000000
      4.12507      6.87512      5.21496         0.049746      0.325202      0.000000
      6.87512      1.37502      1.73832        -0.005941      0.026307      0.000000
      6.87512      1.37502      5.21496        -0.040183      0.150311      0.000000
      6.87512      4.12507      1.73832        -0.008294      0.080966      0.000000
      6.87512      4.12507      5.21496        -0.094417     -0.351107      0.000000
      6.87512      6.87512      1.73832         0.008927     -0.099691      0.000000
      6.87512      6.87512      5.21496         0.246469     -0.099839      0.000000
 -----------------------------------------------------------------------------------
    total drift:                                0.000115     -0.000133     -0.000000


--------------------------------------------------------------------------------------------------------



  FREE ENERGIE OF THE ION-ELECTRON SYSTEM (eV)
  ---------------------------------------------------
  free  energy   TOTEN  =      -236.04424612 eV

  energy  without entropy=     -236.05466874  energy(sigma->0) =     -236.04772033
 


--------------------------------------------------------------------------------------------------------


    POTLOK:  cpu time    0.6211: real time    0.6311


--------------------------------------------------------------------------------------------------------


     LOOP+:  cpu time 1060.4541: real time 1080.5331
    4ORBIT:  cpu time    0.0000: real time    0.0000
 


 total charge     
 
# of ion       s       p       d       tot
------------------------------------------
    1        0.405   0.428   0.000   0.833
    2        0.405   0.428   0.000   0.833
    3        0.406   0.427   0.000   0.833
    4        0.406   0.428   0.000   0.834
    5        0.407   0.424   0.000   0.831
    6        0.406   0.424   0.000   0.830
    7        0.405   0.428   0.000   0.832
    8        0.405   0.427   0.000   0.832
    9        0.405   0.429   0.000   0.834
   10        0.405   0.429   0.000   0.834
   11        0.405   0.429   0.000   0.834
   12        0.405   0.429   0.000   0.834
   13        0.405   0.428   0.000   0.833
   14        0.405   0.428   0.000   0.833
   15        0.405   0.427   0.000   0.831
   16        0.405   0.427   0.000   0.832
   17        0.405   0.429   0.000   0.834
   18        0.405   0.429   0.000   0.833
   19        0.335   0.355   5.122   5.812
   20        0.330   0.354   5.143   5.828
   21        0.330   0.355   5.145   5.830
   22        0.332   0.355   5.128   5.816
   23        0.339   0.358   5.113   5.810
   24        0.338   0.352   5.127   5.817
   25        0.335   0.354   5.130   5.819
   26        0.331   0.357   5.134   5.822
   27        0.339   0.359   5.113   5.810
   28        0.339   0.356   5.117   5.811
   29        0.338   0.354   5.125   5.816
   30        0.337   0.356   5.121   5.814
   31        0.333   0.359   5.128   5.820
   32        0.334   0.352   5.136   5.822
   33        0.333   0.349   5.147   5.828
   34        0.336   0.358   5.123   5.817
   35        0.331   0.357   5.132   5.820
   36        0.333   0.354   5.141   5.827
--------------------------------------------------
tot         13.314  14.090  92.325 119.729
 


 magnetization (x)
 
# of ion       s       p       d       tot
------------------------------------------
    1        0.002   0.001   0.000   0.003
    2        0.002   0.002   0.000   0.004
    3        0.007   0.017   0.000   0.023
    4        0.006   0.016   0.000   0.022
    5        0.001  -0.000   0.000   0.000
    6        0.001  -0.000   0.000   0.001
    7       -0.001  -0.002   0.000  -0.003
    8       -0.001  -0.001   0.000  -0.002
    9       -0.003  -0.007   0.000  -0.010
   10       -0.003  -0.007   0.000  -0.011
   11       -0.004  -0.010   0.000  -0.014
   12       -0.005  -0.010   0.000  -0.015
   13        0.008   0.017   0.000   0.025
   14        0.009   0.017   0.000   0.025
   15        0.006   0.013   0.000   0.019
   16        0.006   0.013   0.000   0.018
   17        0.004   0.009   0.000   0.014
   18        0.004   0.009   0.000   0.014
   19        0.018   0.020   2.436   2.474
   20       -0.018  -0.022  -2.041  -2.081
   21       -0.028  -0.031  -2.044  -2.103
   22        0.013   0.027   2.298   2.338
   23        0.034   0.027   2.484   2.546
   24        0.028   0.009   2.515   2.553
   25        0.021   0.014   2.367   2.402
   26       -0.010  -0.011  -2.150  -2.171
   27        0.037   0.021   2.520   2.578
   28        0.038   0.022   2.535   2.595
   29       -0.042  -0.021  -2.472  -2.535
   30       -0.041  -0.022  -2.478  -2.541
   31       -0.024  -0.028  -2.178  -2.230
   32       -0.017  -0.006  -2.326  -2.349
   33       -0.020   0.002  -2.320  -2.337
   34       -0.034  -0.036  -2.308  -2.379
   35       -0.007  -0.019  -2.148  -2.174
   36        0.028   0.022   2.165   2.216
--------------------------------------------------
tot          0.014   0.046  -3.144  -3.085
 

 total amount of memory used by VASP MPI-rank0   728596. kBytes
=======================================================================

   base      :      30000. kBytes
   nonl-proj :      34307. kBytes
   fftplans  :      21726. kBytes
   grid      :      14732. kBytes
   one-center:        279. kBytes
   wavefun   :     627552. kBytes
 
  
  
 General timing and accounting informations for this job:
 ========================================================
  
                  Total CPU time used (sec):     1085.733
                            User time (sec):     1064.810
                          System time (sec):       20.923
                         Elapsed time (sec):     1107.585
  
                   Maximum memory used (kb):      867896.
                   Average memory used (kb):           0.
  
                          Minor page faults:       504149
                          Major page faults:           18
                 Voluntary context switches:         4354
