   36   36    1    2
  0.1314651E+02  0.8250148E-09  0.8250148E-09  0.6953274E-09  0.2000000E-15
  1.000000000000000E-004
  CAR 
 AlMn_pv                                 
    180     36    122
 
  0.0000000E+00  0.0000000E+00  0.0000000E+00  0.6666667E-02
    1       -2.539224     -2.498962   1.000000   1.000000
    2       -0.365515     -0.385133   1.000000   1.000000
    3       -0.360336     -0.314763   1.000000   1.000000
    4       -0.354371     -0.284949   1.000000   1.000000
    5       -0.354034     -0.268013   1.000000   1.000000
    6       -0.111264     -0.127921   1.000000   1.000000
    7        1.305610      1.423200   1.000000   1.000000
    8        1.320382      1.428171   1.000000   1.000000
    9        1.361319      1.433382   1.000000   1.000000
   10        1.370163      1.456684   1.000000   1.000000
   11        1.383489      1.459807   1.000000   1.000000
   12        1.501899      1.584028   1.000000   1.000000
   13        1.522100      1.612309   1.000000   1.000000
   14        1.579103      1.660233   1.000000   1.000000
   15        1.604044      1.684356   1.000000   1.000000
   16        2.638584      2.801228   1.000000   1.000000
   17        2.658906      2.834051   1.000000   1.000000
   18        2.731829      2.952446   1.000000   1.000000
   19        2.754076      2.996741   1.000000   1.000000
   20        3.454003      3.488497   1.000000   1.000000
   21        3.456353      3.629373   1.000000   1.000000
   22        3.474073      3.683264   1.000000   1.000000
   23        3.508808      3.711143   1.000000   1.000000
   24        3.993889      4.207972   1.000000   1.000000
   25        4.055807      4.382015   1.000000   1.000000
   26        4.210404      4.589023   1.000000   1.000000
   27        4.305712      4.609741   1.000000   1.000000
   28        4.487544      4.631925   1.000000   1.000000
   29        4.488119      4.750389   1.000000   1.000000
   30        4.510746      4.785386   1.000000   1.000000
   31        4.511035      4.798173   1.000000   1.000000
   32        4.522229      4.842499   1.000000   1.000000
   33        4.525776      4.876787   1.000000   1.000000
   34        4.561965      4.944286   1.000000   1.000000
   35        4.605262      5.004123   1.000000   1.000000
   36        4.609649      5.315780   1.000000   1.000000
   37        4.709715      5.371376   1.000000   1.000000
   38        4.753532      5.432407   1.000000   1.000000
   39        4.798293      5.442347   1.000000   1.000000
   40        4.951609      5.468988   1.000000   1.000000
   41        5.158316      5.495754   1.000000   1.000000
   42        5.227694      5.518580   1.000000   1.000000
   43        5.244312      5.608283   1.000000   1.000000
   44        5.290858      5.670513   1.000000   1.000000
   45        5.291147      5.702952   1.000000   1.000000
   46        5.311810      5.732555   1.000000   1.000000
   47        5.323273      5.763419   1.000000   1.000000
   48        5.326412      5.783880   1.000000   1.000000
   49        5.344193      5.785598   1.000000   1.000000
   50        5.353284      5.916045   1.000000   1.000000
   51        5.374481      5.992150   1.000000   1.000000
   52        5.408292      6.060846   1.000000   1.000000
   53        5.411912      6.184287   1.000000   1.000000
   54        5.549282      6.231654   1.000000   1.000000
   55        5.606506      6.258223   1.000000   1.000000
   56        5.657512      6.363492   1.000000   1.000000
   57        5.703486      6.396159   1.000000   1.000000
   58        5.771769      6.494510   1.000000   1.000000
   59        5.793140      6.496769   1.000000   1.000000
   60        5.810658      6.562323   1.000000   1.000000
   61        5.818512      6.569439   1.000000   1.000000
   62        5.861996      6.582969   1.000000   1.000000
   63        5.944532      6.746829   1.000000   1.000000
   64        5.959189      6.785764   1.000000   1.000000
   65        5.989010      6.812695   1.000000   1.000000
   66        6.155518      6.818975   1.000000   1.000000
   67        6.165578      6.839448   1.000000   1.000000
   68        6.166674      6.864668   1.000000   1.000000
   69        6.313340      6.891560   1.000000   1.000000
   70        6.326756      7.020499   1.000000   1.000002
   71        6.348653      7.030144   1.000000   1.000003
   72        6.354754      7.117177   1.000000   1.000046
   73        6.374019      7.255441   1.000000   1.001546
   74        6.380856      7.279682   1.000000   1.002563
   75        6.425128      7.437947   1.000000   1.026683
   76        6.428213      7.573840   1.000000   1.000098
   77        6.478923      7.665792   1.000000   0.799284
   78        6.644395      7.740537   1.000000   0.507850
   79        6.712544      7.747947   1.000000   0.475977
   80        6.727685      7.824380   1.000000   0.182826
   81        6.730113      7.852655   1.000000   0.102679
   82        6.735564      7.916327   1.000000  -0.006001
   83        6.760823      8.069664   1.000000  -0.021365
   84        6.790338      8.108461   1.000000  -0.013253
   85        6.899176      8.201189   1.000000  -0.002758
   86        6.972602      8.229094   1.000000  -0.001543
   87        6.997286      8.269980   1.000001  -0.000609
   88        7.048154      8.297545   1.000005  -0.000309
   89        7.048422      8.335687   1.000005  -0.000112
   90        7.147028      8.371882   1.000107  -0.000040
   91        7.250573      8.420340   1.001392  -0.000009
   92        7.268233      8.430215   1.002029  -0.000006
   93        7.270078      8.454428   1.002106  -0.000003
   94        7.306376      8.551489   1.004289  -0.000000
   95        7.343000      8.571428   1.008099  -0.000000
   96        7.389292      8.636134   1.015815  -0.000000
   97        7.478936      8.647878   1.034320  -0.000000
   98        7.494752      8.692482   1.035433  -0.000000
   99        7.525153      8.716692   1.031900  -0.000000
  100        7.546387      8.869058   1.022797  -0.000000
  101        7.630226      8.872992   0.901158  -0.000000
  102        7.811783      8.928896   0.225736  -0.000000
  103        8.026804      8.947321  -0.030902  -0.000000
  104        8.118908      8.965144  -0.011441  -0.000000
  105        8.158256      8.989132  -0.006114  -0.000000
  106        8.161701      9.005148  -0.005761  -0.000000
  107        8.186719      9.009624  -0.003679  -0.000000
  108        8.195102      9.013597  -0.003133  -0.000000
  109        8.222893      9.018234  -0.001764  -0.000000
  110        8.565938      9.035006  -0.000000  -0.000000
  111        8.605934      9.080819  -0.000000  -0.000000
  112        8.691302      9.100901  -0.000000  -0.000000
  113        8.698734      9.102320  -0.000000  -0.000000
  114        8.732853      9.108156  -0.000000  -0.000000
  115        8.814752      9.186489  -0.000000  -0.000000
  116        8.873222      9.223317  -0.000000  -0.000000
  117        9.023148      9.369620  -0.000000  -0.000000
  118        9.127049      9.488380  -0.000000  -0.000000
  119        9.204484      9.724278  -0.000000  -0.000000
  120        9.242506      9.843051  -0.000000  -0.000000
  121        9.360945      9.989508  -0.000000  -0.000000
  122        9.689116     10.186022  -0.000000  -0.000000
 
  0.2000000E+00  0.0000000E+00  0.0000000E+00  0.2666667E-01
    1       -2.448677     -2.408473   1.000000   1.000000
    2       -1.123173     -1.083107   1.000000   1.000000
    3       -0.277792     -0.243991   1.000000   1.000000
    4       -0.274536     -0.216423   1.000000   1.000000
    5       -0.046845     -0.060740   1.000000   1.000000
    6        0.541104      0.595047   1.000000   1.000000
    7        0.866304      0.905291   1.000000   1.000000
    8        0.901468      0.957868   1.000000   1.000000
    9        0.905711      0.975018   1.000000   1.000000
   10        1.399892      1.490861   1.000000   1.000000
   11        1.417379      1.508156   1.000000   1.000000
   12        1.433067      1.557477   1.000000   1.000000
   13        1.853650      2.002298   1.000000   1.000000
   14        2.249038      2.375295   1.000000   1.000000
   15        2.252306      2.386683   1.000000   1.000000
   16        2.269823      2.405609   1.000000   1.000000
   17        2.275585      2.419658   1.000000   1.000000
   18        2.759093      2.892772   1.000000   1.000000
   19        3.122877      3.380410   1.000000   1.000000
   20        3.140021      3.431887   1.000000   1.000000
   21        3.528469      3.670273   1.000000   1.000000
   22        3.546881      3.718040   1.000000   1.000000
   23        3.681803      3.808462   1.000000   1.000000
   24        3.975243      4.184777   1.000000   1.000000
   25        4.030422      4.311311   1.000000   1.000000
   26        4.167525      4.417857   1.000000   1.000000
   27        4.227507      4.574482   1.000000   1.000000
   28        4.276420      4.596600   1.000000   1.000000
   29        4.381200      4.682979   1.000000   1.000000
   30        4.392166      4.733920   1.000000   1.000000
   31        4.415352      4.785731   1.000000   1.000000
   32        4.418061      4.830040   1.000000   1.000000
   33        4.529464      4.844819   1.000000   1.000000
   34        4.546502      4.869139   1.000000   1.000000
   35        4.624840      5.069875   1.000000   1.000000
   36        4.785376      5.186976   1.000000   1.000000
   37        4.806435      5.306005   1.000000   1.000000
   38        4.829238      5.352825   1.000000   1.000000
   39        4.889449      5.389045   1.000000   1.000000
   40        4.938376      5.437943   1.000000   1.000000
   41        4.968645      5.444687   1.000000   1.000000
   42        5.148706      5.473588   1.000000   1.000000
   43        5.173392      5.539281   1.000000   1.000000
   44        5.222999      5.604907   1.000000   1.000000
   45        5.246531      5.621566   1.000000   1.000000
   46        5.319738      5.729517   1.000000   1.000000
   47        5.334198      5.792452   1.000000   1.000000
   48        5.358622      5.811855   1.000000   1.000000
   49        5.385130      5.820795   1.000000   1.000000
   50        5.387545      6.028969   1.000000   1.000000
   51        5.432266      6.063165   1.000000   1.000000
   52        5.462777      6.078772   1.000000   1.000000
   53        5.482503      6.242719   1.000000   1.000000
   54        5.589289      6.248731   1.000000   1.000000
   55        5.598946      6.296447   1.000000   1.000000
   56        5.671948      6.351222   1.000000   1.000000
   57        5.693694      6.424316   1.000000   1.000000
   58        5.772071      6.455042   1.000000   1.000000
   59        5.809609      6.474722   1.000000   1.000000
   60        5.846620      6.479240   1.000000   1.000000
   61        5.873649      6.552179   1.000000   1.000000
   62        5.920031      6.659139   1.000000   1.000000
   63        5.921591      6.707313   1.000000   1.000000
   64        5.995376      6.752379   1.000000   1.000000
   65        6.048885      6.854553   1.000000   1.000000
   66        6.094491      6.855657   1.000000   1.000000
   67        6.181438      6.880882   1.000000   1.000000
   68        6.235100      6.901286   1.000000   1.000000
   69        6.264905      6.916261   1.000000   1.000000
   70        6.282516      7.083240   1.000000   1.000016
   71        6.297451      7.087140   1.000000   1.000018
   72        6.317717      7.217471   1.000000   1.000654
   73        6.339924      7.310299   1.000000   1.004612
   74        6.359162      7.331644   1.000000   1.006708
   75        6.389943      7.467007   1.000000   1.032605
   76        6.486335      7.500522   1.000000   1.035418
   77        6.507920      7.575682   1.000000   0.998052
   78        6.569915      7.590350   1.000000   0.978929
   79        6.602657      7.633367   1.000000   0.893826
   80        6.672874      7.761126   1.000000   0.420959
   81        6.709196      7.811503   1.000000   0.225518
   82        6.727051      7.929749   1.000000  -0.017394
   83        6.737467      8.078972   1.000000  -0.019259
   84        6.786964      8.146667   1.000000  -0.007441
   85        6.817139      8.150609   1.000000  -0.006968
   86        6.884751      8.208467   1.000000  -0.002380
   87        6.914122      8.230838   1.000000  -0.001487
   88        6.942655      8.263130   1.000000  -0.000717
   89        6.987101      8.302480   1.000001  -0.000272
   90        6.996274      8.308319   1.000001  -0.000234
   91        7.056025      8.361016   1.000007  -0.000055
   92        7.120341      8.401594   1.000050  -0.000016
   93        7.225960      8.462050   1.000798  -0.000002
   94        7.349428      8.511738   1.008969  -0.000000
   95        7.461724      8.560454   1.031677  -0.000000
   96        7.493468      8.594171   1.035403  -0.000000
   97        7.505932      8.640136   1.035156  -0.000000
   98        7.543488      8.774638   1.024439  -0.000000
   99        7.640110      8.788540   0.875827  -0.000000
  100        7.678136      8.844307   0.757031  -0.000000
  101        7.901056      8.905414   0.011595  -0.000000
  102        8.001474      8.911947  -0.034744  -0.000000
  103        8.037282      8.936524  -0.028758  -0.000000
  104        8.078894      8.943788  -0.019362  -0.000000
  105        8.103804      8.983421  -0.014138  -0.000000
  106        8.124337      9.009311  -0.010554  -0.000000
  107        8.141900      9.024797  -0.008043  -0.000000
  108        8.197376      9.084572  -0.002995  -0.000000
  109        8.202858      9.096469  -0.002664  -0.000000
  110        8.608848      9.122135  -0.000000  -0.000000
  111        8.649436      9.180944  -0.000000  -0.000000
  112        8.713641      9.181561  -0.000000  -0.000000
  113        8.723857      9.200616  -0.000000  -0.000000
  114        8.740804      9.218208  -0.000000  -0.000000
  115        8.995443      9.249597  -0.000000  -0.000000
  116        9.100923      9.409658  -0.000000  -0.000000
  117        9.128583      9.422454  -0.000000  -0.000000
  118        9.130857      9.535280  -0.000000  -0.000000
  119        9.149680      9.684762  -0.000000  -0.000000
  120        9.213064      9.822301  -0.000000  -0.000000
  121        9.427041     10.039547  -0.000000  -0.000000
  122        9.591855     10.265246  -0.000000  -0.000000
 
  0.4000000E+00  0.0000000E+00  0.0000000E+00  0.2666667E-01
    1       -2.178770     -2.138668   1.000000   1.000000
    2       -1.733739     -1.693699   1.000000   1.000000
    3       -0.034713      0.002322   1.000000   1.000000
    4       -0.029765      0.028445   1.000000   1.000000
    5        0.143727      0.138756   1.000000   1.000000
    6        0.366892      0.409337   1.000000   1.000000
    7        0.369356      0.433038   1.000000   1.000000
    8        0.454403      0.465299   1.000000   1.000000
    9        1.546169      1.619229   1.000000   1.000000
   10        1.578664      1.676475   1.000000   1.000000
   11        1.607073      1.692891   1.000000   1.000000
   12        1.698415      1.835878   1.000000   1.000000
   13        1.870270      2.000503   1.000000   1.000000
   14        1.908668      2.010317   1.000000   1.000000
   15        2.153362      2.291814   1.000000   1.000000
   16        2.228488      2.474286   1.000000   1.000000
   17        2.647717      2.719316   1.000000   1.000000
   18        2.862185      3.050361   1.000000   1.000000
   19        2.911666      3.110536   1.000000   1.000000
   20        3.439314      3.764762   1.000000   1.000000
   21        3.496896      3.844932   1.000000   1.000000
   22        3.692434      3.868002   1.000000   1.000000
   23        3.703961      3.895188   1.000000   1.000000
   24        3.897032      4.099356   1.000000   1.000000
   25        3.938773      4.149622   1.000000   1.000000
   26        4.033659      4.250598   1.000000   1.000000
   27        4.047033      4.314889   1.000000   1.000000
   28        4.140068      4.524471   1.000000   1.000000
   29        4.187409      4.544814   1.000000   1.000000
   30        4.224995      4.577992   1.000000   1.000000
   31        4.245743      4.674522   1.000000   1.000000
   32        4.525764      4.738576   1.000000   1.000000
   33        4.568769      4.765892   1.000000   1.000000
   34        4.596132      4.852142   1.000000   1.000000
   35        4.682626      5.093531   1.000000   1.000000
   36        4.730303      5.142266   1.000000   1.000000
   37        4.842044      5.218160   1.000000   1.000000
   38        4.914901      5.317553   1.000000   1.000000
   39        4.927829      5.381465   1.000000   1.000000
   40        4.991646      5.420690   1.000000   1.000000
   41        4.993474      5.450456   1.000000   1.000000
   42        5.032719      5.474209   1.000000   1.000000
   43        5.178015      5.536814   1.000000   1.000000
   44        5.198847      5.601748   1.000000   1.000000
   45        5.248518      5.629242   1.000000   1.000000
   46        5.320657      5.759184   1.000000   1.000000
   47        5.348702      5.767050   1.000000   1.000000
   48        5.399251      5.822772   1.000000   1.000000
   49        5.402403      5.828409   1.000000   1.000000
   50        5.443701      5.985224   1.000000   1.000000
   51        5.452277      6.059309   1.000000   1.000000
   52        5.491574      6.097973   1.000000   1.000000
   53        5.494254      6.150464   1.000000   1.000000
   54        5.567023      6.250165   1.000000   1.000000
   55        5.598381      6.252661   1.000000   1.000000
   56        5.623764      6.289390   1.000000   1.000000
   57        5.668846      6.338784   1.000000   1.000000
   58        5.681662      6.339871   1.000000   1.000000
   59        5.765650      6.503620   1.000000   1.000000
   60        5.907930      6.566719   1.000000   1.000000
   61        5.947957      6.576427   1.000000   1.000000
   62        5.999190      6.668312   1.000000   1.000000
   63        6.012538      6.761488   1.000000   1.000000
   64        6.014093      6.786659   1.000000   1.000000
   65        6.141867      6.888675   1.000000   1.000000
   66        6.146954      6.947253   1.000000   1.000000
   67        6.157106      6.985530   1.000000   1.000001
   68        6.178488      7.021269   1.000000   1.000002
   69        6.220367      7.030607   1.000000   1.000003
   70        6.224967      7.114766   1.000000   1.000042
   71        6.254137      7.213098   1.000000   1.000589
   72        6.280457      7.218893   1.000000   1.000676
   73        6.303465      7.307310   1.000000   1.004367
   74        6.335392      7.369258   1.000000   1.012059
   75        6.373596      7.386912   1.000000   1.015339
   76        6.407385      7.478123   1.000000   1.034214
   77        6.428759      7.503368   1.000000   1.035312
   78        6.535937      7.515572   1.000000   1.034008
   79        6.580438      7.561729   1.000000   1.011912
   80        6.663282      7.776300   1.000000   0.358323
   81        6.691018      7.816069   1.000000   0.210266
   82        6.706543      7.852370   1.000000   0.103387
   83        6.707447      7.986290   1.000000  -0.035454
   84        6.730490      8.075395   1.000000  -0.020063
   85        6.752621      8.147346   1.000000  -0.007346
   86        6.812243      8.167409   1.000000  -0.005210
   87        6.851385      8.207600   1.000000  -0.002422
   88        6.883147      8.213108   1.000000  -0.002161
   89        6.886000      8.230773   1.000000  -0.001491
   90        6.910951      8.267381   1.000000  -0.000648
   91        6.957895      8.267937   1.000000  -0.000640
   92        7.019962      8.329324   1.000002  -0.000134
   93        7.206038      8.447755   1.000496  -0.000004
   94        7.359073      8.543034   1.010399  -0.000000
   95        7.407256      8.608120   1.019661  -0.000000
   96        7.491376      8.608656   1.035327  -0.000000
   97        7.548087      8.661826   1.021782  -0.000000
   98        7.552547      8.675424   1.018903  -0.000000
   99        7.659916      8.728329   0.817735  -0.000000
  100        7.748366      8.743014   0.475030  -0.000000
  101        7.922245      8.800329  -0.011288  -0.000000
  102        7.976448      8.806393  -0.034958  -0.000000
  103        8.038933      8.863571  -0.028395  -0.000000
  104        8.043053      8.934129  -0.027466  -0.000000
  105        8.073432      8.982262  -0.020491  -0.000000
  106        8.200060      9.013071  -0.002818  -0.000000
  107        8.201421      9.090643  -0.002766  -0.000000
  108        8.242259      9.159541  -0.001159  -0.000000
  109        8.375438      9.188222  -0.000036  -0.000000
  110        8.617504      9.193251  -0.000000  -0.000000
  111        8.665482      9.229662  -0.000000  -0.000000
  112        8.747359      9.230288  -0.000000  -0.000000
  113        8.766579      9.296723  -0.000000  -0.000000
  114        8.877510      9.329496  -0.000000  -0.000000
  115        9.047499      9.576992  -0.000000  -0.000000
  116        9.123079      9.603580  -0.000000  -0.000000
  117        9.198242      9.823314  -0.000000  -0.000000
  118        9.474940      9.924744  -0.000000  -0.000000
  119        9.562107      9.971965  -0.000000  -0.000000
  120        9.590395     10.069747  -0.000000  -0.000000
  121        9.703010     10.082944  -0.000000  -0.000000
  122        9.715241     10.258198  -0.000000  -0.000000
 
  0.2000000E+00  0.2000000E+00  0.0000000E+00  0.1333333E-01
    1       -2.358408     -2.318286   1.000000   1.000000
    2       -1.038205     -1.019015   1.000000   1.000000
    3       -1.036962     -0.972684   1.000000   1.000000
    4        0.017404      0.006346   1.000000   1.000000
    5        0.201466      0.253643   1.000000   1.000000
    6        0.619733      0.654836   1.000000   1.000000
    7        0.622302      0.695331   1.000000   1.000000
    8        0.911772      0.968547   1.000000   1.000000
    9        0.947360      0.972337   1.000000   1.000000
   10        1.510798      1.649456   1.000000   1.000000
   11        1.679397      1.764883   1.000000   1.000000
   12        1.736273      1.815579   1.000000   1.000000
   13        1.797639      1.888677   1.000000   1.000000
   14        1.915995      2.070120   1.000000   1.000000
   15        1.925028      2.085486   1.000000   1.000000
   16        2.698748      2.901349   1.000000   1.000000
   17        2.762882      2.924188   1.000000   1.000000
   18        2.783717      2.982798   1.000000   1.000000
   19        2.821086      3.007963   1.000000   1.000000
   20        2.856507      3.035155   1.000000   1.000000
   21        3.515524      3.852936   1.000000   1.000000
   22        3.718267      3.860908   1.000000   1.000000
   23        3.725236      3.861245   1.000000   1.000000
   24        3.750275      3.933644   1.000000   1.000000
   25        4.070778      4.375532   1.000000   1.000000
   26        4.121905      4.419600   1.000000   1.000000
   27        4.253865      4.478788   1.000000   1.000000
   28        4.262285      4.479828   1.000000   1.000000
   29        4.277527      4.574908   1.000000   1.000000
   30        4.286955      4.647915   1.000000   1.000000
   31        4.297676      4.711847   1.000000   1.000000
   32        4.397855      4.805622   1.000000   1.000000
   33        4.481510      4.834680   1.000000   1.000000
   34        4.502122      4.884455   1.000000   1.000000
   35        4.613836      5.030563   1.000000   1.000000
   36        4.696667      5.155762   1.000000   1.000000
   37        4.827351      5.187493   1.000000   1.000000
   38        4.841686      5.300029   1.000000   1.000000
   39        4.919804      5.302099   1.000000   1.000000
   40        5.008020      5.331784   1.000000   1.000000
   41        5.085008      5.442151   1.000000   1.000000
   42        5.112406      5.459416   1.000000   1.000000
   43        5.184992      5.512875   1.000000   1.000000
   44        5.196319      5.595830   1.000000   1.000000
   45        5.231444      5.702888   1.000000   1.000000
   46        5.269129      5.779115   1.000000   1.000000
   47        5.293370      5.818339   1.000000   1.000000
   48        5.362434      5.894691   1.000000   1.000000
   49        5.402082      5.927512   1.000000   1.000000
   50        5.419742      5.988556   1.000000   1.000000
   51        5.499269      6.163989   1.000000   1.000000
   52        5.507550      6.213819   1.000000   1.000000
   53        5.591436      6.256286   1.000000   1.000000
   54        5.611552      6.260956   1.000000   1.000000
   55        5.656798      6.352703   1.000000   1.000000
   56        5.658660      6.388028   1.000000   1.000000
   57        5.705963      6.406941   1.000000   1.000000
   58        5.765394      6.473095   1.000000   1.000000
   59        5.802262      6.497452   1.000000   1.000000
   60        5.858782      6.526510   1.000000   1.000000
   61        5.894485      6.529006   1.000000   1.000000
   62        5.925365      6.585892   1.000000   1.000000
   63        5.959590      6.765412   1.000000   1.000000
   64        5.967700      6.766156   1.000000   1.000000
   65        6.044021      6.810608   1.000000   1.000000
   66        6.101969      6.854290   1.000000   1.000000
   67        6.191955      6.887178   1.000000   1.000000
   68        6.216296      6.946976   1.000000   1.000000
   69        6.254075      6.964709   1.000000   1.000000
   70        6.272118      7.104724   1.000000   1.000031
   71        6.278275      7.133759   1.000000   1.000074
   72        6.314116      7.162422   1.000000   1.000162
   73        6.348332      7.284064   1.000000   1.002797
   74        6.361357      7.338968   1.000000   1.007575
   75        6.416174      7.367158   1.000000   1.011700
   76        6.502579      7.476732   1.000000   1.034045
   77        6.526110      7.500149   1.000000   1.035425
   78        6.563464      7.561277   1.000000   1.012324
   79        6.617340      7.675978   1.000000   0.764409
   80        6.653278      7.676221   1.000000   0.763386
   81        6.668630      7.748642   1.000000   0.473193
   82        6.690748      7.865811   1.000000   0.072173
   83        6.691871      7.959934   1.000000  -0.032051
   84        6.719363      7.973450   1.000000  -0.034657
   85        6.780447      8.099313   1.000000  -0.014988
   86        6.813809      8.180501   1.000000  -0.004106
   87        6.821671      8.233396   1.000000  -0.001405
   88        6.864626      8.247659   1.000000  -0.001024
   89        6.977560      8.342085   1.000000  -0.000094
   90        7.003073      8.346125   1.000001  -0.000084
   91        7.003883      8.408593   1.000001  -0.000013
   92        7.117628      8.436429   1.000046  -0.000005
   93        7.121347      8.467276   1.000051  -0.000002
   94        7.367692      8.525600   1.011803  -0.000000
   95        7.441431      8.617950   1.027469  -0.000000
   96        7.473580      8.624079   1.033619  -0.000000
   97        7.521189      8.712282   1.032872  -0.000000
   98        7.522920      8.721164   1.032480  -0.000000
   99        7.651172      8.825434   0.844504  -0.000000
  100        7.679689      8.839811   0.751009  -0.000000
  101        7.942106      8.860598  -0.025041  -0.000000
  102        8.048435      8.934085  -0.026250  -0.000000
  103        8.054667      8.957605  -0.024822  -0.000000
  104        8.084366      8.962207  -0.018162  -0.000000
  105        8.131344      8.994284  -0.009554  -0.000000
  106        8.154492      9.005935  -0.006524  -0.000000
  107        8.154569      9.011226  -0.006512  -0.000000
  108        8.192380      9.075057  -0.003282  -0.000000
  109        8.320495      9.089508  -0.000170  -0.000000
  110        8.421632      9.124217  -0.000009  -0.000000
  111        8.613078      9.182665  -0.000000  -0.000000
  112        8.689933      9.198740  -0.000000  -0.000000
  113        8.823323      9.207025  -0.000000  -0.000000
  114        9.003009      9.237579  -0.000000  -0.000000
  115        9.017309      9.435154  -0.000000  -0.000000
  116        9.028133      9.558334  -0.000000  -0.000000
  117        9.124625      9.562867  -0.000000  -0.000000
  118        9.267692      9.659512  -0.000000  -0.000000
  119        9.365586      9.727949  -0.000000  -0.000000
  120        9.371815      9.845432  -0.000000  -0.000000
  121        9.400101     10.032269  -0.000000  -0.000000
  122        9.551065     10.240355  -0.000000  -0.000000
 
  0.4000000E+00  0.2000000E+00  0.0000000E+00  0.2666667E-01
    1       -2.089374     -2.049418   1.000000   1.000000
    2       -1.645869     -1.605788   1.000000   1.000000
    3       -0.783126     -0.739481   1.000000   1.000000
    4       -0.365526     -0.318437   1.000000   1.000000
    5        0.207453      0.205569   1.000000   1.000000
    6        0.517533      0.531427   1.000000   1.000000
    7        0.851610      0.908217   1.000000   1.000000
    8        1.113586      1.163667   1.000000   1.000000
    9        1.222243      1.285850   1.000000   1.000000
   10        1.413499      1.478678   1.000000   1.000000
   11        1.620841      1.693990   1.000000   1.000000
   12        1.790290      1.926268   1.000000   1.000000
   13        2.092420      2.257111   1.000000   1.000000
   14        2.239648      2.377994   1.000000   1.000000
   15        2.283075      2.506706   1.000000   1.000000
   16        2.377249      2.589274   1.000000   1.000000
   17        2.544466      2.657705   1.000000   1.000000
   18        2.704751      2.785590   1.000000   1.000000
   19        3.059963      3.211290   1.000000   1.000000
   20        3.089752      3.405005   1.000000   1.000000