       N       E                     dE             d eps       ncg     rms          ort
DAV:   1     0.132829159498E+04    0.13283E+04   -0.60163E+04  4392   0.134E+03
DAV:   2    -0.855093470973E+02   -0.14138E+04   -0.13645E+04  4392   0.401E+02
DAV:   3    -0.245214040876E+03   -0.15970E+03   -0.13832E+03  4392   0.148E+02
DAV:   4    -0.267938050493E+03   -0.22724E+02   -0.19927E+02  4392   0.630E+01
DAV:   5    -0.269807233854E+03   -0.18692E+01   -0.17843E+01  4392   0.177E+01
DAV:   6    -0.269940370466E+03   -0.13314E+00   -0.13129E+00  4392   0.441E+00
DAV:   7    -0.269953970176E+03   -0.13600E-01   -0.13525E-01  4392   0.119E+00
DAV:   8    -0.269954923800E+03   -0.95362E-03   -0.95080E-03  4392   0.310E-01
SDA:   9    -0.613860882426E+02    0.20857E+03   -0.95080E-03  4392   0.230E+04 0.000E+00
CGA:  10    -0.205481321006E+03   -0.14410E+03   -0.14093E+03  4392   0.185E+03 0.421E+03
CGA:  11    -0.217756791170E+03   -0.12275E+02   -0.12107E+02  4392   0.582E+02 0.706E+01
CGA:  12    -0.225124179979E+03   -0.73674E+01   -0.73158E+01  4392   0.902E+02-0.793E-01
CGA:  13    -0.233303888211E+03   -0.81797E+01   -0.81640E+01  4392   0.195E+02 0.117E+01
CGA:  14    -0.234617113826E+03   -0.13132E+01   -0.13381E+01  4392   0.575E+01-0.198E+00
CGA:  15    -0.235178927747E+03   -0.56181E+00   -0.56504E+00  4392   0.650E+01-0.862E-02
CGA:  16    -0.235884423433E+03   -0.70550E+00   -0.71030E+00  4392   0.311E+01 0.147E-02
CGA:  17    -0.236112345229E+03   -0.22792E+00   -0.22869E+00  4392   0.107E+01-0.264E-02
CGA:  18    -0.236249808319E+03   -0.13746E+00   -0.13768E+00  4392   0.116E+01 0.137E-02
CGA:  19    -0.236379086270E+03   -0.12928E+00   -0.12962E+00  4392   0.638E+00-0.545E-03
CGA:  20    -0.236427559205E+03   -0.48473E-01   -0.48901E-01  4392   0.256E+00-0.347E-02
CGA:  21    -0.236458068852E+03   -0.30510E-01   -0.30546E-01  4392   0.314E+00 0.173E-03
CGA:  22    -0.236500582759E+03   -0.42514E-01   -0.42565E-01  4392   0.178E+00 0.112E-02
CGA:  23    -0.236515838689E+03   -0.15256E-01   -0.15280E-01  4392   0.797E-01-0.228E-03
CGA:  24    -0.236523178780E+03   -0.73401E-02   -0.73534E-02  4392   0.638E-01-0.125E-03
CGA:  25    -0.236534506496E+03   -0.11328E-01   -0.11336E-01  4392   0.574E-01-0.264E-03
CGA:  26    -0.236540754377E+03   -0.62479E-02   -0.62569E-02  4392   0.409E-01-0.990E-04
CGA:  27    -0.236546127645E+03   -0.53733E-02   -0.53712E-02  4392   0.374E-01-0.129E-03
CGA:  28    -0.236550353946E+03   -0.42263E-02   -0.42315E-02  4392   0.214E-01 0.301E-04
CGA:  29    -0.236552307672E+03   -0.19537E-02   -0.19534E-02  4392   0.104E-01 0.254E-04
CGA:  30    -0.236554120994E+03   -0.18133E-02   -0.18110E-02  4392   0.135E-01 0.638E-04
CGA:  31    -0.236555720173E+03   -0.15992E-02   -0.15986E-02  4392   0.101E-01 0.186E-04
CGA:  32    -0.236556793482E+03   -0.10733E-02   -0.10765E-02  4392   0.651E-02 0.351E-04
CGA:  33    -0.236557786487E+03   -0.99300E-03   -0.99306E-03  4392   0.664E-02 0.123E-04
CGA:  34    -0.236558613415E+03   -0.82693E-03   -0.82832E-03  4392   0.361E-02 0.713E-04
CGA:  35    -0.236559000068E+03   -0.38665E-03   -0.38755E-03  4392   0.263E-02 0.374E-04
CGA:  36    -0.236559344233E+03   -0.34416E-03   -0.34447E-03  4392   0.202E-02 0.411E-04
CGA:  37    -0.236559662581E+03   -0.31835E-03   -0.31788E-03  4392   0.191E-02 0.256E-04
CGA:  38    -0.236559908682E+03   -0.24610E-03   -0.24636E-03  4392   0.160E-02 0.207E-04
CGA:  39    -0.236560110880E+03   -0.20220E-03   -0.20237E-03  4392   0.881E-03 0.160E-04
SDA:  40    -0.236560192561E+03   -0.81681E-04   -0.82191E-04  4392   0.500E-03 0.958E-05
CGA:  41    -0.236560236012E+03   -0.43451E-04   -0.43335E-04  4392   0.542E-03-0.231E-05
CGA:  42    -0.236560336837E+03   -0.10083E-03   -0.10120E-03  4392   0.288E-03-0.672E-05
CGA:  43    -0.236560370923E+03   -0.34086E-04   -0.34024E-04  4392   0.306E-03-0.412E-05
CGA:  44    -0.236560417977E+03   -0.47055E-04   -0.47198E-04  4392   0.135E-03-0.637E-05
CGA:  45    -0.236560437689E+03   -0.19712E-04   -0.19713E-04  4392   0.164E-03-0.100E-06
CGA:  46    -0.236560468321E+03   -0.30632E-04   -0.30561E-04  4392   0.977E-04 0.144E-05
CGA:  47    -0.236560479960E+03   -0.11639E-04   -0.11641E-04  4392   0.128E-03 0.117E-06
CGA:  48    -0.236560495331E+03   -0.15370E-04   -0.15365E-04  4392   0.692E-04-0.225E-06
CGA:  49    -0.236560506850E+03   -0.11520E-04   -0.11422E-04  4392   0.662E-04 0.341E-05
CGA:  50    -0.236560514479E+03   -0.76287E-05   -0.77199E-05  4392   0.205E-04 0.342E-05
CGA:  51    -0.236560520072E+03   -0.55932E-05   -0.53573E-05  4392   0.420E-04 0.210E-05
CGA:  52    -0.236560524144E+03   -0.40718E-05   -0.41511E-05  4392   0.179E-04 0.151E-05
CGA:  53    -0.236560526698E+03   -0.25539E-05   -0.25563E-05  4392   0.253E-04 0.946E-06
CGA:  54    -0.236560530914E+03   -0.42157E-05   -0.41808E-05  4392   0.656E-05 0.199E-05
CGA:  55    -0.236560531584E+03   -0.67048E-06   -0.67797E-06  4392   0.625E-05 0.174E-06
CGA:  56    -0.236560532987E+03   -0.14027E-05   -0.13868E-05  4392   0.102E-04 0.194E-06
CGA:  57    -0.236560533968E+03   -0.98138E-06   -0.96968E-06  4392   0.457E-05-0.261E-06
CGA:  58    -0.236560534795E+03   -0.82649E-06   -0.85354E-06  4392   0.502E-05-0.499E-06
CGA:  59    -0.236560535281E+03   -0.48568E-06   -0.48374E-06  4392   0.301E-05-0.511E-07
CGA:  60    -0.236560535648E+03   -0.36747E-06   -0.37407E-06  4392   0.167E-05 0.387E-06
CGA:  61    -0.236560535820E+03   -0.17237E-06   -0.18124E-06  4392   0.116E-05 0.201E-06
CGA:  62    -0.236560536035E+03   -0.21462E-06   -0.21099E-06  4392   0.915E-06 0.181E-06
CGA:  63    -0.236560536146E+03   -0.11085E-06   -0.11126E-06  4392   0.670E-06 0.294E-07
CGA:  64    -0.236560536243E+03   -0.97578E-07   -0.97360E-07  4392   0.385E-06 0.114E-06
   1 F= -.23656054E+03 E0= -.23657689E+03  d E =0.490519E-01  mag=    18.8897
