 vasp.5.4.4.18Apr17-6-g9f103f2a35 (build Dec 20 2018 12:05:58) complex          
  
 executed on             LinuxIFC date 2019.06.20  15:43:00
 running on   32 total cores
 distrk:  each k-point on    8 cores,    4 groups
 distr:  one band on NCORES_PER_BAND=   4 cores,    2 groups


--------------------------------------------------------------------------------------------------------


 INCAR:
 POTCAR:    PAW_PBE Al 04Jan2001                  
 POTCAR:    PAW_PBE Mn 06Sep2000                  

 ----------------------------------------------------------------------------- 
|                                                                             |
|           W    W    AA    RRRRR   N    N  II  N    N   GGGG   !!!           |
|           W    W   A  A   R    R  NN   N  II  NN   N  G    G  !!!           |
|           W    W  A    A  R    R  N N  N  II  N N  N  G       !!!           |
|           W WW W  AAAAAA  RRRRR   N  N N  II  N  N N  G  GGG   !            |
|           WW  WW  A    A  R   R   N   NN  II  N   NN  G    G                |
|           W    W  A    A  R    R  N    N  II  N    N   GGGG   !!!           |
|                                                                             |
|      You have enabled k-point parallelism (KPAR>1).                         |
|      This developmental code was originally  written by Paul Kent at ORNL,  |
|      and carefully double checked in Vienna.                                |
|      GW as well as linear response parallelism added by Martijn Marsman     |
|      and Georg Kresse.                                                      |
|      Carefully verify results versus KPAR=1.                                |
|      Report problems to Paul Kent and Vienna.                               |
|                                                                             |
 ----------------------------------------------------------------------------- 

 POTCAR:    PAW_PBE Al 04Jan2001                  
   VRHFIN =Al: s2p1                                                             
   LEXCH  = PE                                                                  
   EATOM  =    53.5387 eV,    3.9350 Ry                                         
                                                                                
   TITEL  = PAW_PBE Al 04Jan2001                                                
   LULTRA =        F    use ultrasoft PP ?                                      
   IUNSCR =        1    unscreen: 0-lin 1-nonlin 2-no                           
   RPACOR =    1.500    partial core radius                                     
   POMASS =   26.981; ZVAL   =    3.000    mass and valenz                      
   RCORE  =    1.900    outmost cutoff radius                                   
   RWIGS  =    2.650; RWIGS  =    1.402    wigner-seitz radius (au A)           
   ENMAX  =  240.300; ENMIN  =  180.225 eV                                      
   ICORE  =        2    local potential                                         
   LCOR   =        T    correct aug charges                                     
   LPAW   =        T    paw PP                                                  
   EAUG   =  291.052                                                            
   DEXC   =    0.000                                                            
   RMAX   =    1.939    core radius for proj-oper                               
   RAUG   =    1.300    factor for augmentation sphere                          
   RDEP   =    1.966    radius for radial grids                                 
   RDEPT  =    1.856    core radius for aug-charge                              
                                                                                
   Atomic configuration                                                         
    6 entries                                                                   
     n  l   j            E        occ.                                          
     1  0  0.50     -1511.1048   2.0000                                         
     2  0  0.50      -108.1629   2.0000                                         
     2  1  1.50       -69.6402   6.0000                                         
     3  0  0.50        -7.7528   2.0000                                         
     3  1  1.50        -2.7121   1.0000                                         
     3  2  2.50        -2.7212   0.0000                                         
   Description                                                                  
     l       E           TYP  RCUT    TYP  RCUT                                 
     0     -7.7528455     23  1.900                                             
     0     -3.3096929     23  1.900                                             
     1     -2.7120682     23  1.900                                             
     1     13.6058260     23  1.900                                             
     2     -2.7211652      7  1.900                                             
  local pseudopotential read in
  partial core-charges read in
  partial kinetic energy density read in
  atomic valenz-charges read in
  non local Contribution for L=           0  read in
    real space projection operators read in
  non local Contribution for L=           0  read in
    real space projection operators read in
  non local Contribution for L=           1  read in
    real space projection operators read in
  non local Contribution for L=           1  read in
    real space projection operators read in
    PAW grid and wavefunctions read in
 
   number of l-projection  operators is LMAX  =           4
   number of lm-projection operators is LMMAX =           8
 
 POTCAR:    PAW_PBE Mn 06Sep2000                  
   VRHFIN =Mn: d6 s1                                                            
   LEXCH  = PE                                                                  
   EATOM  =   416.7541 eV,   30.6306 Ry                                         
                                                                                
   TITEL  = PAW_PBE Mn 06Sep2000                                                
   LULTRA =        F    use ultrasoft PP ?                                      
   IUNSCR =        1    unscreen: 0-lin 1-nonlin 2-no                           
   RPACOR =    2.000    partial core radius                                     
   POMASS =   54.938; ZVAL   =    7.000    mass and valenz                      
   RCORE  =    2.300    outmost cutoff radius                                   
   RWIGS  =    2.500; RWIGS  =    1.323    wigner-seitz radius (au A)           
   ENMAX  =  269.864; ENMIN  =  202.398 eV                                      
   RCLOC  =    1.725    cutoff for local pot                                    
   LCOR   =        T    correct aug charges                                     
   LPAW   =        T    paw PP                                                  
   EAUG   =  500.711                                                            
   DEXC   =    0.000                                                            
   RMAX   =    2.343    core radius for proj-oper                               
   RAUG   =    1.300    factor for augmentation sphere                          
   RDEP   =    2.338    radius for radial grids                                 
   RDEPT  =    1.911    core radius for aug-charge                              
                                                                                
   Atomic configuration                                                         
    9 entries                                                                   
     n  l   j            E        occ.                                          
     1  0  0.50     -6424.8288   2.0000                                         
     2  0  0.50      -739.1154   2.0000                                         
     2  1  1.50      -625.3949   6.0000                                         
     3  0  0.50       -81.6100   2.0000                                         
     3  1  1.50       -50.4667   6.0000                                         
     3  2  2.50        -3.3745   6.0000                                         
     4  0  0.50        -4.1331   1.0000                                         
     4  1  0.50        -4.0817   0.0000                                         
     4  3  2.50        -1.3606   0.0000                                         
   Description                                                                  
     l       E           TYP  RCUT    TYP  RCUT                                 
     2     -3.3744664     23  2.300                                             
     2     -4.7350490     23  2.300                                             
     0     -4.1331408     23  2.300                                             
     0      7.6656614     23  2.300                                             
     1     -2.7211652     23  2.300                                             
     1     20.4087390     23  2.300                                             
  local pseudopotential read in
  partial core-charges read in
  partial kinetic energy density read in
  atomic valenz-charges read in
  non local Contribution for L=           2  read in
    real space projection operators read in
  non local Contribution for L=           2  read in
    real space projection operators read in
  non local Contribution for L=           0  read in
    real space projection operators read in
  non local Contribution for L=           0  read in
    real space projection operators read in
  non local Contribution for L=           1  read in
    real space projection operators read in
  non local Contribution for L=           1  read in
    real space projection operators read in
    PAW grid and wavefunctions read in
 
   number of l-projection  operators is LMAX  =           6
   number of lm-projection operators is LMMAX =          18
 

 ----------------------------------------------------------------------------- 
|                                                                             |
|  ADVICE TO THIS USER RUNNING 'VASP/VAMP'   (HEAR YOUR MASTER'S VOICE ...):  |
|                                                                             |
|      You have a (more or less) 'large supercell' and for larger cells       |
|      it might be more efficient to use real space projection opertators     |
|      So try LREAL= Auto  in the INCAR   file.                               |
|      Mind:          For very  accurate calculation you might also keep the  |
|      reciprocal projection scheme          (i.e. LREAL=.FALSE.)             |
|                                                                             |
 ----------------------------------------------------------------------------- 

  PAW_PBE Al 04Jan2001                  :
 energy of atom  1       EATOM=  -53.5387
 kinetic energy error for atom=    0.0005 (will be added to EATOM!!)
  PAW_PBE Mn 06Sep2000                  :
 energy of atom  2       EATOM= -416.7541
 kinetic energy error for atom=    0.0080 (will be added to EATOM!!)
 
 
 POSCAR: NewRef: 18, @ ['Mn', array([1.37502469, 
  positions in cartesian coordinates
  velocities in cartesian coordinates
  No initial velocities read in
 exchange correlation table for  LEXCH =        8
   RHO(1)=    0.500       N(1)  =     2000
   RHO(2)=  100.500       N(2)  =     4000
 


--------------------------------------------------------------------------------------------------------


 ion  position               nearest neighbor table
   1  0.000  0.000  0.000-  20 2.61  24 2.61  32 2.61  36 2.61  31 2.61  23 2.61  35 2.61  19 2.61
                             3 2.75   7 2.75   5 2.75  13 2.75
   2  0.000  0.000  0.500-  19 2.61  23 2.61  31 2.61  35 2.61  20 2.61  32 2.61  24 2.61  36 2.61
                             4 2.75   8 2.75   6 2.75  14 2.75
   3  0.000  0.333  0.000-  20 2.61  32 2.61  22 2.61  34 2.61  19 2.61  31 2.61  33 2.61  21 2.61
                             9 2.75   1 2.75   5 2.75  15 2.75
   4  0.000  0.333  0.500-  19 2.61  31 2.61  21 2.61  33 2.61  32 2.61  20 2.61  22 2.61  34 2.61
                            10 2.75   2 2.75   6 2.75  16 2.75
   5  0.000  0.667  0.000-  22 2.61  34 2.61  24 2.61  36 2.61  21 2.61  33 2.61  35 2.61  23 2.61
                             3 2.75  11 2.75   1 2.75  17 2.75
   6  0.000  0.667  0.500-  21 2.61  33 2.61  23 2.61  35 2.61  34 2.61  22 2.61  24 2.61  36 2.61
                             4 2.75  12 2.75   2 2.75  18 2.75
   7  0.333  0.000  0.000-  20 2.61  24 2.61  26 2.61  30 2.61  23 2.61  19 2.61  29 2.61  25 2.61
                            13 2.75   1 2.75   9 2.75  11 2.75
   8  0.333  0.000  0.500-  19 2.61  23 2.61  25 2.61  29 2.61  20 2.61  24 2.61  26 2.61  30 2.61
                            14 2.75   2 2.75  10 2.75  12 2.75
   9  0.333  0.333  0.000-  20 2.61  22 2.61  26 2.61  19 2.61  28 2.61  21 2.61  25 2.61  27 2.61
                             3 2.75   7 2.75  11 2.75  15 2.75
  10  0.333  0.333  0.500-  19 2.61  21 2.61  25 2.61  20 2.61  27 2.61  26 2.61  22 2.61  28 2.61
                             4 2.75   8 2.75  12 2.75  16 2.75
  11  0.333  0.667  0.000-  22 2.61  24 2.61  28 2.61  21 2.61  30 2.61  23 2.61  27 2.61  29 2.61
                            17 2.75   5 2.75   9 2.75   7 2.75
  12  0.333  0.667  0.500-  21 2.61  23 2.61  27 2.61  22 2.61  29 2.61  28 2.61  24 2.61  30 2.61
                            18 2.75   6 2.75  10 2.75   8 2.75
  13  0.667  0.000  0.000-  26 2.61  30 2.61  32 2.61  36 2.61  29 2.61  25 2.61  35 2.61  31 2.61
                             7 2.75  15 2.75   1 2.75  17 2.75
  14  0.667  0.000  0.500-  25 2.61  29 2.61  31 2.61  35 2.61  26 2.61  30 2.61  32 2.61  36 2.61
                             8 2.75  16 2.75   2 2.75  18 2.75
  15  0.667  0.333  0.000-  26 2.61  28 2.61  32 2.61  25 2.61  34 2.61  27 2.61  31 2.61  33 2.61
                            17 2.75   9 2.75  13 2.75   3 2.75
  16  0.667  0.333  0.500-  25 2.61  27 2.61  31 2.61  26 2.61  33 2.61  32 2.61  28 2.61  34 2.61
                            18 2.75  10 2.75  14 2.75   4 2.75
  17  0.667  0.667  0.000-  28 2.61  30 2.61  34 2.61  27 2.61  36 2.61  29 2.61  33 2.61  35 2.61
                            11 2.75  15 2.75  13 2.75   5 2.75
  18  0.667  0.667  0.500-  27 2.61  29 2.61  33 2.61  28 2.61  35 2.61  34 2.61  30 2.61  36 2.61
                            12 2.75  16 2.75  14 2.75   6 2.75
  19  0.167  0.167  0.250-  10 2.61   8 2.61   4 2.61   9 2.61   2 2.61   7 2.61   3 2.61   1 2.61
                            21 2.75  25 2.75  23 2.75  31 2.75
  20  0.167  0.167  0.750-   9 2.61   7 2.61   3 2.61  10 2.61   1 2.61   4 2.61   8 2.61   2 2.61
                            22 2.75  26 2.75  24 2.75  32 2.75
  21  0.167  0.500  0.250-  12 2.61  10 2.61   6 2.61  11 2.61   4 2.61   9 2.61   5 2.61   3 2.61
                            19 2.75  23 2.75  27 2.75  33 2.75
  22  0.167  0.500  0.750-  11 2.61   9 2.61   5 2.61  12 2.61   3 2.61   6 2.61  10 2.61   4 2.61
                            20 2.75  24 2.75  28 2.75  34 2.75
  23  0.167  0.833  0.250-   8 2.61  12 2.61   2 2.61   6 2.61  11 2.61   7 2.61   5 2.61   1 2.61
                            21 2.75  29 2.75  19 2.75  35 2.75
  24  0.167  0.833  0.750-   7 2.61  11 2.61   1 2.61   5 2.61   8 2.61  12 2.61   2 2.61   6 2.61
                            22 2.75  30 2.75  20 2.75  36 2.75
  25  0.500  0.167  0.250-  16 2.61  14 2.61  10 2.61  15 2.61   8 2.61  13 2.61   9 2.61   7 2.61
                            19 2.75  27 2.75  31 2.75  29 2.75
  26  0.500  0.167  0.750-  15 2.61  13 2.61   9 2.61  16 2.61   7 2.61  10 2.61  14 2.61   8 2.61
                            20 2.75  28 2.75  32 2.75  30 2.75
  27  0.500  0.500  0.250-  18 2.61  16 2.61  12 2.61  17 2.61  10 2.61  15 2.61  11 2.61   9 2.61
                            21 2.75  25 2.75  29 2.75  33 2.75
  28  0.500  0.500  0.750-  17 2.61  15 2.61  11 2.61  18 2.61   9 2.61  12 2.61  16 2.61  10 2.61
                            22 2.75  26 2.75  30 2.75  34 2.75
  29  0.500  0.833  0.250-  14 2.61  18 2.61   8 2.61  12 2.61  17 2.61  13 2.61  11 2.61   7 2.61
                            23 2.75  27 2.75  35 2.75  25 2.75
  30  0.500  0.833  0.750-  13 2.61  17 2.61   7 2.61  11 2.61  14 2.61  18 2.61   8 2.61  12 2.61
                            24 2.75  28 2.75  36 2.75  26 2.75
  31  0.833  0.167  0.250-   4 2.61  16 2.61  14 2.61   2 2.61  15 2.61   3 2.61  13 2.61   1 2.61
                            25 2.75  33 2.75  19 2.75  35 2.75
  32  0.833  0.167  0.750-   3 2.61  15 2.61  13 2.61   1 2.61   4 2.61  16 2.61   2 2.61  14 2.61
                            26 2.75  34 2.75  20 2.75  36 2.75
  33  0.833  0.500  0.250-   6 2.61  18 2.61  16 2.61   4 2.61  17 2.61   5 2.61  15 2.61   3 2.61
                            27 2.75  31 2.75  35 2.75  21 2.75
  34  0.833  0.500  0.750-   5 2.61  17 2.61  15 2.61   3 2.61   6 2.61  18 2.61   4 2.61  16 2.61
                            28 2.75  32 2.75  36 2.75  22 2.75
  35  0.833  0.833  0.250-   2 2.61   6 2.61  14 2.61  18 2.61  13 2.61   5 2.61  17 2.61   1 2.61
                            29 2.75  33 2.75  31 2.75  23 2.75
  36  0.833  0.833  0.750-   1 2.61   5 2.61  13 2.61  17 2.61   2 2.61  14 2.61   6 2.61  18 2.61
                            30 2.75  34 2.75  32 2.75  24 2.75
 
  LATTYP: Found a simple tetragonal cell.
 ALAT       =     8.2501481662
 C/A-ratio  =     0.8428059861
  
  Lattice vectors:
  
 A1 = (   8.2501481662,   0.0000000000,   0.0000000000)
 A2 = (   0.0000000000,   8.2501481662,   0.0000000000)
 A3 = (   0.0000000000,   0.0000000000,   6.9532742610)


Analysis of symmetry for initial positions (statically):
=====================================================================
 Subroutine PRICEL returns following result:
 
  LATTYP: Found a simple tetragonal cell.
 ALAT       =     2.7500493888
 C/A-ratio  =     1.2642089792
  
  Lattice vectors:
  
 A1 = (   2.7500493888,   0.0000000000,   0.0000000000)
 A2 = (   0.0000000000,   2.7500493888,   0.0000000000)
 A3 = (   0.0000000000,   0.0000000000,   3.4766371305)
 
  18 primitive cells build up your supercell.
 

 Routine SETGRP: Setting up the symmetry group for a 
 simple tetragonal supercell.


 Subroutine GETGRP returns: Found 16 space group operations
 (whereof 16 operations were pure point group operations)
 out of a pool of 16 trial point group operations.


The static configuration has the point symmetry D_4h.


Analysis of symmetry for dynamics (positions and initial velocities):
=====================================================================
 Subroutine PRICEL returns following result:
 
  LATTYP: Found a simple tetragonal cell.
 ALAT       =     2.7500493888
 C/A-ratio  =     1.2642089792
  
  Lattice vectors:
  
 A1 = (   2.7500493888,   0.0000000000,   0.0000000000)
 A2 = (   0.0000000000,   2.7500493888,   0.0000000000)
 A3 = (   0.0000000000,   0.0000000000,   3.4766371305)
 
  18 primitive cells build up your supercell.
 

 Routine SETGRP: Setting up the symmetry group for a 
 simple tetragonal supercell.


 Subroutine GETGRP returns: Found 16 space group operations
 (whereof 16 operations were pure point group operations)
 out of a pool of 16 trial point group operations.


The dynamic configuration has the point symmetry D_4h.


Analysis of structural, dynamic, and magnetic symmetry:
=====================================================================
 Subroutine PRICEL returns:
 Original cell was already a primitive cell.
 

 Routine SETGRP: Setting up the symmetry group for a 
 simple tetragonal supercell.


 Subroutine GETGRP returns: Found  4 space group operations
 (whereof  1 operations were pure point group operations)
 out of a pool of 16 trial point group operations.


The magnetic configuration has the point symmetry C_1 .
 The point group associated with its full space group is C_2v.


 Subroutine INISYM returns: Found  4 space group operations
 (whereof  1 operations are pure point group operations),
 and found     1 'primitive' translations

 
 
 KPOINTS: automatic KPOINTS                       

Automatic generation of k-mesh.
 generate k-points for:    5    5    6
Space group operators:
 irot       det(A)        alpha          n_x          n_y          n_z        tau_x        tau_y        tau_z
    1     1.000000     0.000001     1.000000     0.000000     0.000000     0.000000     0.000000     0.000000
    2    -1.000000   179.999999     0.000000     0.000000     1.000000     0.000000     0.000000     0.500000
    3     1.000000   180.000000     0.707107     0.707107     0.000000     0.333333     0.666667     0.500000
    4    -1.000000   180.000000     0.707107    -0.707107     0.000000     0.333333     0.666667     0.000000
 
 Subroutine IBZKPT returns following result:
 ===========================================
 
 Found     36 irreducible k-points:
 
 Following reciprocal coordinates:
            Coordinates               Weight
  0.000000  0.000000  0.000000      1.000000
  0.200000  0.000000  0.000000      4.000000
  0.400000  0.000000  0.000000      4.000000
  0.200000  0.200000  0.000000      2.000000
  0.400000  0.200000  0.000000      4.000000
 -0.400000  0.200000  0.000000      4.000000
 -0.200000  0.200000  0.000000      2.000000
  0.400000  0.400000  0.000000      2.000000
 -0.400000  0.400000  0.000000      2.000000
  0.000000  0.000000  0.166667      2.000000
  0.200000  0.000000  0.166667      8.000000
  0.400000  0.000000  0.166667      8.000000
  0.200000  0.200000  0.166667      4.000000
  0.400000  0.200000  0.166667      8.000000
 -0.400000  0.200000  0.166667      8.000000
 -0.200000  0.200000  0.166667      4.000000
  0.400000  0.400000  0.166667      4.000000
 -0.400000  0.400000  0.166667      4.000000
  0.000000  0.000000  0.333333      2.000000
  0.200000  0.000000  0.333333      8.000000
  0.400000  0.000000  0.333333      8.000000
  0.200000  0.200000  0.333333      4.000000
  0.400000  0.200000  0.333333      8.000000
 -0.400000  0.200000  0.333333      8.000000
 -0.200000  0.200000  0.333333      4.000000
  0.400000  0.400000  0.333333      4.000000
 -0.400000  0.400000  0.333333      4.000000
  0.000000  0.000000  0.500000      1.000000
  0.200000  0.000000  0.500000      4.000000
  0.400000  0.000000  0.500000      4.000000
  0.200000  0.200000  0.500000      2.000000
  0.400000  0.200000  0.500000      4.000000
 -0.400000  0.200000  0.500000      4.000000
 -0.200000  0.200000  0.500000      2.000000
  0.400000  0.400000  0.500000      2.000000
 -0.400000  0.400000  0.500000      2.000000
 
 Following cartesian coordinates:
            Coordinates               Weight
  0.000000  0.000000  0.000000      1.000000
  0.024242  0.000000  0.000000      4.000000
  0.048484  0.000000  0.000000      4.000000
  0.024242  0.024242  0.000000      2.000000
  0.048484  0.024242  0.000000      4.000000
 -0.048484  0.024242  0.000000      4.000000
 -0.024242  0.024242  0.000000      2.000000
  0.048484  0.048484  0.000000      2.000000
 -0.048484  0.048484  0.000000      2.000000
  0.000000  0.000000  0.023970      2.000000
  0.024242  0.000000  0.023970      8.000000
  0.048484  0.000000  0.023970      8.000000
  0.024242  0.024242  0.023970      4.000000
  0.048484  0.024242  0.023970      8.000000
 -0.048484  0.024242  0.023970      8.000000
 -0.024242  0.024242  0.023970      4.000000
  0.048484  0.048484  0.023970      4.000000
 -0.048484  0.048484  0.023970      4.000000
  0.000000  0.000000  0.047939      2.000000
  0.024242  0.000000  0.047939      8.000000
  0.048484  0.000000  0.047939      8.000000
  0.024242  0.024242  0.047939      4.000000
  0.048484  0.024242  0.047939      8.000000
 -0.048484  0.024242  0.047939      8.000000
 -0.024242  0.024242  0.047939      4.000000
  0.048484  0.048484  0.047939      4.000000
 -0.048484  0.048484  0.047939      4.000000
  0.000000  0.000000  0.071909      1.000000
  0.024242  0.000000  0.071909      4.000000
  0.048484  0.000000  0.071909      4.000000
  0.024242  0.024242  0.071909      2.000000
  0.048484  0.024242  0.071909      4.000000
 -0.048484  0.024242  0.071909      4.000000
 -0.024242  0.024242  0.071909      2.000000
  0.048484  0.048484  0.071909      2.000000
 -0.048484  0.048484  0.071909      2.000000
 


--------------------------------------------------------------------------------------------------------




 Dimension of arrays:
   k-points           NKPTS =     36   k-points in BZ     NKDIM =     36   number of bands    NBANDS=    122
   number of dos      NEDOS =    301   number of ions     NIONS =     36
   non local maximal  LDIM  =      6   non local SUM 2l+1 LMDIM =     18
   total plane-waves  NPLWV = 139968
   max r-space proj   IRMAX =      1   max aug-charges    IRDMAX=  92271
   dimension x,y,z NGX =    54 NGY =   54 NGZ =   48
   dimension x,y,z NGXF=   108 NGYF=  108 NGZF=   96
   support grid    NGXF=   216 NGYF=  216 NGZF=  192
   ions per type =              18  18
   NGX,Y,Z   is equivalent  to a cutoff of  10.88, 10.88, 11.48 a.u.
   NGXF,Y,Z  is equivalent  to a cutoff of  21.76, 21.76, 22.95 a.u.

 SYSTEM =  AlMn_pv                                 
 POSCAR =  NewRef: 18, @ ['Mn', array([1.37502469, 

 Startparameter for this run:
   NWRITE =      2    write-flag & timer
   PREC   = accura    normal or accurate (medium, high low for compatibility)
   ISTART =      0    job   : 0-new  1-cont  2-samecut
   ICHARG =      2    charge: 1-file 2-atom 10-const
   ISPIN  =      2    spin polarized calculation?
   LNONCOLLINEAR =      F non collinear calculations
   LSORBIT =      F    spin-orbit coupling
   INIWAV =      1    electr: 0-lowe 1-rand  2-diag
   LASPH  =      F    aspherical Exc in radial PAW
   METAGGA=      F    non-selfconsistent MetaGGA calc.

 Electronic Relaxation 1
   ENCUT  =  404.8 eV  29.75 Ry    5.45 a.u.  13.53 13.53 11.41*2*pi/ulx,y,z
   ENINI  =  404.8     initial cutoff
   ENAUG  =  500.7 eV  augmentation charge cutoff
   NELM   =    100;   NELMIN=  4; NELMDL= -8     # of ELM steps 
   EDIFF  = 0.1E-06   stopping-criterion for ELM
   LREAL  =      F    real-space projection
   NLSPLINE    = F    spline interpolate recip. space projectors
   LCOMPAT=      F    compatible to vasp.4.4
   GGA_COMPAT  = T    GGA compatible to vasp.4.4-vasp.4.6
   LMAXPAW     = -100 max onsite density
   LMAXMIX     =    2 max onsite mixed and CHGCAR
   VOSKOWN=      0    Vosko Wilk Nusair interpolation
   ROPT   =    0.00000   0.00000
 Ionic relaxation
   EDIFFG = 0.1E-05   stopping-criterion for IOM
   NSW    =      0    number of steps for IOM
   NBLOCK =      1;   KBLOCK =      1    inner block; outer block 
   IBRION =     -1    ionic relax: 0-MD 1-quasi-New 2-CG
   NFREE  =      0    steps in history (QN), initial steepest desc. (CG)
   ISIF   =      2    stress and relaxation
   IWAVPR =     10    prediction:  0-non 1-charg 2-wave 3-comb
   ISYM   =      2    0-nonsym 1-usesym 2-fastsym
   LCORR  =      T    Harris-Foulkes like correction to forces

   POTIM  = 0.2000    time-step for ionic-motion
   TEIN   =    0.0    initial temperature
   TEBEG  =    0.0;   TEEND  =   0.0 temperature during run
   SMASS  =  -3.00    Nose mass-parameter (am)
   estimated Nose-frequenzy (Omega)   =  0.10E-29 period in steps =****** mass=  -0.156E-26a.u.
   SCALEE = 1.0000    scale energy and forces
   NPACO  =    256;   APACO  = 16.0  distance and # of slots for P.C.
   PSTRESS=    0.0 pullay stress

  Mass of Ions in am
   POMASS =  26.98 54.94
  Ionic Valenz
   ZVAL   =   3.00  7.00
  Atomic Wigner-Seitz radii
   RWIGS  =  -1.00 -1.00
  virtual crystal weights 
   VCA    =   1.00  1.00
   NELECT =     180.0000    total number of electrons
   NUPDOWN=      -1.0000    fix difference up-down

 DOS related values:
   EMIN   =  10.00;   EMAX   =-10.00  energy-range for DOS
   EFERMI =   0.00
   ISMEAR =     1;   SIGMA  =   0.20  broadening in eV -4-tet -1-fermi 0-gaus

 Electronic relaxation 2 (details)
   IALGO  =     58    algorithm
   LDIAG  =      T    sub-space diagonalisation (order eigenvalues)
   LSUBROT=      F    optimize rotation matrix (better conditioning)
   TURBO    =      0    0=normal 1=particle mesh
   IRESTART =      0    0=no restart 2=restart with 2 vectors
   NREBOOT  =      0    no. of reboots
   NMIN     =      0    reboot dimension
   EREF     =   0.00    reference energy to select bands
   IMIX   =      4    mixing-type and parameters
     AMIX     =   0.40;   BMIX     =  1.00
     AMIX_MAG =   1.60;   BMIX_MAG =  1.00
     AMIN     =   0.10
     WC   =   100.;   INIMIX=   1;  MIXPRE=   1;  MAXMIX= -45

 Intra band minimization:
   WEIMIN = 0.0000     energy-eigenvalue tresh-hold
   EBREAK =  0.20E-09  absolut break condition
   DEPER  =   0.30     relativ break condition  

   TIME   =   0.40     timestep for ELM

  volume/ion in A,a.u.               =      13.15        88.72
  Fermi-wavevector in a.u.,A,eV,Ry     =   1.186118  2.241439 19.141722  1.406877
  Thomas-Fermi vector in A             =   2.322298
 
 Write flags
   LWAVE        =      F    write WAVECAR
   LDOWNSAMPLE  =      F    k-point downsampling of WAVECAR
   LCHARG       =      F    write CHGCAR
   LVTOT        =      F    write LOCPOT, total local potential
   LVHAR        =      F    write LOCPOT, Hartree potential only
   LELF         =      F    write electronic localiz. function (ELF)
   LORBIT       =     10    0 simple, 1 ext, 2 COOP (PROOUT), +10 PAW based schemes


 Dipole corrections
   LMONO  =      F    monopole corrections only (constant potential shift)
   LDIPOL =      F    correct potential (dipole corrections)
   IDIPOL =      0    1-x, 2-y, 3-z, 4-all directions 
   EPSILON=  1.0000000 bulk dielectric constant

 Exchange correlation treatment:
   GGA     =    --    GGA type
   LEXCH   =     8    internal setting for exchange type
   VOSKOWN=      0    Vosko Wilk Nusair interpolation
   LHFCALC =     F    Hartree Fock is set to
   LHFONE  =     F    Hartree Fock one center treatment
   AEXX    =    0.0000 exact exchange contribution

 Linear response parameters
   LEPSILON=     F    determine dielectric tensor
   LRPA    =     F    only Hartree local field effects (RPA)
   LNABLA  =     F    use nabla operator in PAW spheres
   LVEL    =     F    velocity operator in full k-point grid
   LINTERFAST=   F  fast interpolation
   KINTER  =     0    interpolate to denser k-point grid
   CSHIFT  =0.1000    complex shift for real part using Kramers Kronig
   OMEGAMAX=  -1.0    maximum frequency
   DEG_THRESHOLD= 0.2000000E-02 threshold for treating states as degnerate
   RTIME   =   -0.100 relaxation time in fs
  (WPLASMAI=    0.000 imaginary part of plasma frequency in eV, 0.658/RTIME)
   DFIELD  = 0.0000000 0.0000000 0.0000000 field for delta impulse in time
 
 Orbital magnetization related:
   ORBITALMAG=     F  switch on orbital magnetization
   LCHIMAG   =     F  perturbation theory with respect to B field
   DQ        =  0.001000  dq finite difference perturbation B field
   LLRAUG    =     F  two centre corrections for induced B field



--------------------------------------------------------------------------------------------------------


 Static calculation
 charge density and potential will be updated during run
 spin polarized calculation
 Conjugate gradient for all bands (Freysoldt, et al. PRB 79, 241103 (2009))
 preconditioned conjugated gradient                                        
 perform sub-space diagonalisation
    before iterative eigenvector-optimisation
 modified Broyden-mixing scheme, WC =      100.0
 initial mixing is a Kerker type mixing with AMIX =  0.4000 and BMIX =      1.0000
 Hartree-type preconditioning will be used
 using additional bands           32
 reciprocal scheme for non local part
 use partial core corrections
 no Harris-corrections to forces 
 use gradient corrections 
 use of overlap-Matrix (Vanderbilt PP)
 Methfessel and Paxton  Order N= 1 SIGMA  =   0.20


--------------------------------------------------------------------------------------------------------


  energy-cutoff  :      404.80
  volume of cell :      473.27
      direct lattice vectors                 reciprocal lattice vectors
     8.250148166  0.000000000  0.000000000     0.121209944  0.000000000  0.000000000
     0.000000000  8.250148166  0.000000000     0.000000000  0.121209944  0.000000000
     0.000000000  0.000000000  6.953274261     0.000000000  0.000000000  0.143817137

  length of vectors
     8.250148166  8.250148166  6.953274261     0.121209944  0.121209944  0.143817137


 
 k-points in units of 2pi/SCALE and weight: automatic KPOINTS                       
   0.00000000  0.00000000  0.00000000       0.007
   0.02424199  0.00000000  0.00000000       0.027
   0.04848398  0.00000000  0.00000000       0.027
   0.02424199  0.02424199  0.00000000       0.013
   0.04848398  0.02424199  0.00000000       0.027
  -0.04848398  0.02424199  0.00000000       0.027
  -0.02424199  0.02424199  0.00000000       0.013
   0.04848398  0.04848398  0.00000000       0.013
  -0.04848398  0.04848398  0.00000000       0.013
   0.00000000  0.00000000  0.02396952       0.013
   0.02424199  0.00000000  0.02396952       0.053
   0.04848398  0.00000000  0.02396952       0.053
   0.02424199  0.02424199  0.02396952       0.027
   0.04848398  0.02424199  0.02396952       0.053
  -0.04848398  0.02424199  0.02396952       0.053
  -0.02424199  0.02424199  0.02396952       0.027
   0.04848398  0.04848398  0.02396952       0.027
  -0.04848398  0.04848398  0.02396952       0.027
   0.00000000  0.00000000  0.04793905       0.013
   0.02424199  0.00000000  0.04793905       0.053
   0.04848398  0.00000000  0.04793905       0.053
   0.02424199  0.02424199  0.04793905       0.027
   0.04848398  0.02424199  0.04793905       0.053
  -0.04848398  0.02424199  0.04793905       0.053
  -0.02424199  0.02424199  0.04793905       0.027
   0.04848398  0.04848398  0.04793905       0.027
  -0.04848398  0.04848398  0.04793905       0.027
   0.00000000  0.00000000  0.07190857       0.007
   0.02424199  0.00000000  0.07190857       0.027
   0.04848398  0.00000000  0.07190857       0.027
   0.02424199  0.02424199  0.07190857       0.013
   0.04848398  0.02424199  0.07190857       0.027
  -0.04848398  0.02424199  0.07190857       0.027
  -0.02424199  0.02424199  0.07190857       0.013
   0.04848398  0.04848398  0.07190857       0.013
  -0.04848398  0.04848398  0.07190857       0.013
 
 k-points in reciprocal lattice and weights: automatic KPOINTS                       
   0.00000000  0.00000000  0.00000000       0.007
   0.20000000  0.00000000  0.00000000       0.027
   0.40000000  0.00000000  0.00000000       0.027
   0.20000000  0.20000000  0.00000000       0.013
   0.40000000  0.20000000  0.00000000       0.027
  -0.40000000  0.20000000  0.00000000       0.027
  -0.20000000  0.20000000  0.00000000       0.013
   0.40000000  0.40000000  0.00000000       0.013
  -0.40000000  0.40000000  0.00000000       0.013
   0.00000000  0.00000000  0.16666667       0.013
   0.20000000  0.00000000  0.16666667       0.053
   0.40000000  0.00000000  0.16666667       0.053
   0.20000000  0.20000000  0.16666667       0.027
   0.40000000  0.20000000  0.16666667       0.053
  -0.40000000  0.20000000  0.16666667       0.053
  -0.20000000  0.20000000  0.16666667       0.027
   0.40000000  0.40000000  0.16666667       0.027
  -0.40000000  0.40000000  0.16666667       0.027
   0.00000000  0.00000000  0.33333333       0.013
   0.20000000  0.00000000  0.33333333       0.053
   0.40000000  0.00000000  0.33333333       0.053
   0.20000000  0.20000000  0.33333333       0.027
   0.40000000  0.20000000  0.33333333       0.053
  -0.40000000  0.20000000  0.33333333       0.053
  -0.20000000  0.20000000  0.33333333       0.027
   0.40000000  0.40000000  0.33333333       0.027
  -0.40000000  0.40000000  0.33333333       0.027
   0.00000000  0.00000000  0.50000000       0.007
   0.20000000  0.00000000  0.50000000       0.027
   0.40000000  0.00000000  0.50000000       0.027
   0.20000000  0.20000000  0.50000000       0.013
   0.40000000  0.20000000  0.50000000       0.027
  -0.40000000  0.20000000  0.50000000       0.027
  -0.20000000  0.20000000  0.50000000       0.013
   0.40000000  0.40000000  0.50000000       0.013
  -0.40000000  0.40000000  0.50000000       0.013
 
 position of ions in fractional coordinates (direct lattice) 
   0.00000000  0.00000000  0.00000000
   0.00000000  0.00000000  0.50000000
   0.00000000  0.33333333  0.00000000
   0.00000000  0.33333333  0.50000000
   0.00000000  0.66666667  0.00000000
   0.00000000  0.66666667  0.50000000
   0.33333333  0.00000000  0.00000000
   0.33333333  0.00000000  0.50000000
   0.33333333  0.33333333  0.00000000
   0.33333333  0.33333333  0.50000000
   0.33333333  0.66666667  0.00000000
   0.33333333  0.66666667  0.50000000
   0.66666667  0.00000000  0.00000000
   0.66666667  0.00000000  0.50000000
   0.66666667  0.33333333  0.00000000
   0.66666667  0.33333333  0.50000000
   0.66666667  0.66666667  0.00000000
   0.66666667  0.66666667  0.50000000
   0.16666667  0.16666667  0.25000000
   0.16666667  0.16666667  0.75000000
   0.16666667  0.50000000  0.25000000
   0.16666667  0.50000000  0.75000000
   0.16666667  0.83333333  0.25000000
   0.16666667  0.83333333  0.75000000
   0.50000000  0.16666667  0.25000000
   0.50000000  0.16666667  0.75000000
   0.50000000  0.50000000  0.25000000
   0.50000000  0.50000000  0.75000000
   0.50000000  0.83333333  0.25000000
   0.50000000  0.83333333  0.75000000
   0.83333333  0.16666667  0.25000000
   0.83333333  0.16666667  0.75000000
   0.83333333  0.50000000  0.25000000
   0.83333333  0.50000000  0.75000000
   0.83333333  0.83333333  0.25000000
   0.83333333  0.83333333  0.75000000
 
 position of ions in cartesian coordinates  (Angst):
   0.00000000  0.00000000  0.00000000
   0.00000000  0.00000000  3.47663713
   0.00000000  2.75004939  0.00000000
   0.00000000  2.75004939  3.47663713
   0.00000000  5.50009878  0.00000000
   0.00000000  5.50009878  3.47663713
   2.75004939  0.00000000  0.00000000
   2.75004939  0.00000000  3.47663713
   2.75004939  2.75004939  0.00000000
   2.75004939  2.75004939  3.47663713
   2.75004939  5.50009878  0.00000000
   2.75004939  5.50009878  3.47663713
   5.50009878  0.00000000  0.00000000
   5.50009878  0.00000000  3.47663713
   5.50009878  2.75004939  0.00000000
   5.50009878  2.75004939  3.47663713
   5.50009878  5.50009878  0.00000000
   5.50009878  5.50009878  3.47663713
   1.37502469  1.37502469  1.73831857
   1.37502469  1.37502469  5.21495570
   1.37502469  4.12507408  1.73831857
   1.37502469  4.12507408  5.21495570
   1.37502469  6.87512347  1.73831857
   1.37502469  6.87512347  5.21495570
   4.12507408  1.37502469  1.73831857
   4.12507408  1.37502469  5.21495570
   4.12507408  4.12507408  1.73831857
   4.12507408  4.12507408  5.21495570
   4.12507408  6.87512347  1.73831857
   4.12507408  6.87512347  5.21495570
   6.87512347  1.37502469  1.73831857
   6.87512347  1.37502469  5.21495570
   6.87512347  4.12507408  1.73831857
   6.87512347  4.12507408  5.21495570
   6.87512347  6.87512347  1.73831857
   6.87512347  6.87512347  5.21495570
 


--------------------------------------------------------------------------------------------------------


 k-point  1 :   0.0000 0.0000 0.0000  plane waves:    8799
 k-point  2 :   0.2000 0.0000 0.0000  plane waves:    8753
 k-point  3 :   0.4000 0.0000 0.0000  plane waves:    8757
 k-point  4 :   0.2000 0.2000 0.0000  plane waves:    8767
 k-point  5 :   0.4000 0.2000 0.0000  plane waves:    8761
 k-point  6 :  -0.4000 0.2000 0.0000  plane waves:    8761
 k-point  7 :  -0.2000 0.2000 0.0000  plane waves:    8767
 k-point  8 :   0.4000 0.4000 0.0000  plane waves:    8731
 k-point  9 :  -0.4000 0.4000 0.0000  plane waves:    8731
 k-point 10 :   0.0000 0.0000 0.1667  plane waves:    8763
 k-point 11 :   0.2000 0.0000 0.1667  plane waves:    8771
 k-point 12 :   0.4000 0.0000 0.1667  plane waves:    8747
 k-point 13 :   0.2000 0.2000 0.1667  plane waves:    8764
 k-point 14 :   0.4000 0.2000 0.1667  plane waves:    8768
 k-point 15 :  -0.4000 0.2000 0.1667  plane waves:    8768
 k-point 16 :  -0.2000 0.2000 0.1667  plane waves:    8764
 k-point 17 :   0.4000 0.4000 0.1667  plane waves:    8740
 k-point 18 :  -0.4000 0.4000 0.1667  plane waves:    8740
 k-point 19 :   0.0000 0.0000 0.3333  plane waves:    8743
 k-point 20 :   0.2000 0.0000 0.3333  plane waves:    8736
 k-point 21 :   0.4000 0.0000 0.3333  plane waves:    8753
 k-point 22 :   0.2000 0.2000 0.3333  plane waves:    8753
 k-point 23 :   0.4000 0.2000 0.3333  plane waves:    8743
 k-point 24 :  -0.4000 0.2000 0.3333  plane waves:    8743
 k-point 25 :  -0.2000 0.2000 0.3333  plane waves:    8753
 k-point 26 :   0.4000 0.4000 0.3333  plane waves:    8755
 k-point 27 :  -0.4000 0.4000 0.3333  plane waves:    8755
 k-point 28 :   0.0000 0.0000 0.5000  plane waves:    8742
 k-point 29 :   0.2000 0.0000 0.5000  plane waves:    8756
 k-point 30 :   0.4000 0.0000 0.5000  plane waves:    8744
 k-point 31 :   0.2000 0.2000 0.5000  plane waves:    8762
 k-point 32 :   0.4000 0.2000 0.5000  plane waves:    8732
 k-point 33 :  -0.4000 0.2000 0.5000  plane waves:    8732
 k-point 34 :  -0.2000 0.2000 0.5000  plane waves:    8762
 k-point 35 :   0.4000 0.4000 0.5000  plane waves:    8736
 k-point 36 :  -0.4000 0.4000 0.5000  plane waves:    8736

 maximum and minimum number of plane-waves per node :      2206     2165

 maximum number of plane-waves:      8799
 maximum index in each direction: 
   IXMAX=   13   IYMAX=   13   IZMAX=   11
   IXMIN=  -13   IYMIN=  -13   IZMIN=  -11


 parallel 3D FFT for wavefunctions:
    minimum data exchange during FFTs selected (reduces bandwidth)
 parallel 3D FFT for charge:
    minimum data exchange during FFTs selected (reduces bandwidth)


 total amount of memory used by VASP MPI-rank0   581658. kBytes
=======================================================================

   base      :      30000. kBytes
   nonl-proj :      24142. kBytes
   fftplans  :      21726. kBytes
   grid      :      14732. kBytes
   one-center:        279. kBytes
   wavefun   :     490779. kBytes
 
     INWAV:  cpu time    0.0001: real time    0.0001
 Broyden mixing: mesh for mixing (old mesh)
   NGX = 27   NGY = 27   NGZ = 23
  (NGX  =108   NGY  =108   NGZ  = 96)
  gives a total of  16767 points

 initial charge density was supplied:
 charge density of overlapping atoms calculated
 number of electron     180.0000000 magnetization      24.0000000
 keeping initial charge density in first step


--------------------------------------------------------------------------------------------------------


 Maximum index for augmentation-charges        11261 (set IRDMAX)


--------------------------------------------------------------------------------------------------------


 First call to EWALD:  gamma=   0.227
 Maximum number of real-space cells 3x 3x 3
 Maximum number of reciprocal cells 3x 3x 3

    FEWALD:  cpu time    0.0022: real time    0.0022


--------------------------------------- Iteration      1(   1)  ---------------------------------------


    POTLOK:  cpu time    0.2508: real time    0.2515
    SETDIJ:  cpu time    0.3683: real time    0.3692
    TRIAL :  cpu time   14.1155: real time   15.0192
    CORREC:  cpu time    0.0050: real time    0.0051
    --------------------------------------------
      LOOP:  cpu time   14.9040: real time   15.8186

 eigenvalue-minimisations  : 17568
 total energy-change (2. order) : 0.1328292E+04  (-0.6016280E+04)
 number of electron     180.0000000 magnetization      24.0000000
 augmentation part      180.0000000 magnetization      24.0000000

 Free energy of the ion-electron system (eV)
  ---------------------------------------------------
  alpha Z        PSCENC =       532.25742704
  Ewald energy   TEWEN  =     -8601.05107233
  -Hartree energ DENC   =     -1903.73857242
  -exchange      EXHF   =         0.00000000
  -V(xc)+E(xc)   XCENC  =      -664.61784959
  PAW double counting   =      8494.55058411    -7650.81563588
  entropy T*S    EENTRO =        -0.00084867
  eigenvalues    EBANDS =      2656.59155426
  atomic energy  EATOM  =      8465.11600846
  ---------------------------------------------------
  free energy    TOTEN  =      1328.29159498 eV

  energy without entropy =     1328.29244364  energy(sigma->0) =     1328.29187787


--------------------------------------------------------------------------------------------------------




--------------------------------------- Iteration      1(   2)  ---------------------------------------


    TRIAL :  cpu time   14.1880: real time   14.2450
    CORREC:  cpu time    0.0061: real time    0.0062
    --------------------------------------------
      LOOP:  cpu time   14.1950: real time   14.2544

 eigenvalue-minimisations  : 17568
 total energy-change (2. order) :-0.1413801E+04  (-0.1364522E+04)
 number of electron     180.0000000 magnetization      24.0000000
 augmentation part      180.0000000 magnetization      24.0000000

 Free energy of the ion-electron system (eV)
  ---------------------------------------------------
  alpha Z        PSCENC =       532.25742704
  Ewald energy   TEWEN  =     -8601.05107233
  -Hartree energ DENC   =     -1903.73857242
  -exchange      EXHF   =         0.00000000
  -V(xc)+E(xc)   XCENC  =      -664.61784959
  PAW double counting   =      8494.55058411    -7650.81563588
  entropy T*S    EENTRO =        -0.00706837
  eigenvalues    EBANDS =      1242.79683189
  atomic energy  EATOM  =      8465.11600846
  ---------------------------------------------------
  free energy    TOTEN  =       -85.50934710 eV

  energy without entropy =      -85.50227873  energy(sigma->0) =      -85.50699097


--------------------------------------------------------------------------------------------------------




--------------------------------------- Iteration      1(   3)  ---------------------------------------


    TRIAL :  cpu time   19.9772: real time   20.1282
    CORREC:  cpu time    0.0070: real time    0.0071
    --------------------------------------------
      LOOP:  cpu time   19.9849: real time   20.1387

 eigenvalue-minimisations  : 26366
 total energy-change (2. order) :-0.1597047E+03  (-0.1383151E+03)
 number of electron     180.0000000 magnetization      24.0000000
 augmentation part      180.0000000 magnetization      24.0000000

 Free energy of the ion-electron system (eV)
  ---------------------------------------------------
  alpha Z        PSCENC =       532.25742704
  Ewald energy   TEWEN  =     -8601.05107233
  -Hartree energ DENC   =     -1903.73857242
  -exchange      EXHF   =         0.00000000
  -V(xc)+E(xc)   XCENC  =      -664.61784959
  PAW double counting   =      8494.55058411    -7650.81563588
  entropy T*S    EENTRO =         0.01119215
  eigenvalues    EBANDS =      1083.07387758
  atomic energy  EATOM  =      8465.11600846
  ---------------------------------------------------
  free energy    TOTEN  =      -245.21404088 eV

  energy without entropy =     -245.22523303  energy(sigma->0) =     -245.21777159


--------------------------------------------------------------------------------------------------------




--------------------------------------- Iteration      1(   4)  ---------------------------------------


    TRIAL :  cpu time   20.4722: real time   21.4421
    CORREC:  cpu time    0.0070: real time    0.0078
    --------------------------------------------
      LOOP:  cpu time   20.4800: real time   21.4532

 eigenvalue-minimisations  : 28336
 total energy-change (2. order) :-0.2272401E+02  (-0.1992702E+02)
 number of electron     180.0000000 magnetization      24.0000000
 augmentation part      180.0000000 magnetization      24.0000000

 Free energy of the ion-electron system (eV)
  ---------------------------------------------------
  alpha Z        PSCENC =       532.25742704
  Ewald energy   TEWEN  =     -8601.05107233
  -Hartree energ DENC   =     -1903.73857242
  -exchange      EXHF   =         0.00000000
  -V(xc)+E(xc)   XCENC  =      -664.61784959
  PAW double counting   =      8494.55058411    -7650.81563588
  entropy T*S    EENTRO =         0.01327651
  eigenvalues    EBANDS =      1060.34778361
  atomic energy  EATOM  =      8465.11600846
  ---------------------------------------------------
  free energy    TOTEN  =      -267.93805049 eV

  energy without entropy =     -267.95132700  energy(sigma->0) =     -267.94247600


--------------------------------------------------------------------------------------------------------




--------------------------------------- Iteration      1(   5)  ---------------------------------------


    TRIAL :  cpu time   20.5456: real time   20.6260
    CORREC:  cpu time    0.0074: real time    0.0075
    --------------------------------------------
      LOOP:  cpu time   20.5538: real time   20.6374

 eigenvalue-minimisations  : 28536
 total energy-change (2. order) :-0.1869183E+01  (-0.1784315E+01)
 number of electron     180.0000000 magnetization      24.0000000
 augmentation part      180.0000000 magnetization      24.0000000

 Free energy of the ion-electron system (eV)
  ---------------------------------------------------
  alpha Z        PSCENC =       532.25742704
  Ewald energy   TEWEN  =     -8601.05107233
  -Hartree energ DENC   =     -1903.73857242
  -exchange      EXHF   =         0.00000000
  -V(xc)+E(xc)   XCENC  =      -664.61784959
  PAW double counting   =      8494.55058411    -7650.81563588
  entropy T*S    EENTRO =         0.01372854
  eigenvalues    EBANDS =      1058.47814821
  atomic energy  EATOM  =      8465.11600846
  ---------------------------------------------------
  free energy    TOTEN  =      -269.80723385 eV

  energy without entropy =     -269.82096240  energy(sigma->0) =     -269.81181004


--------------------------------------------------------------------------------------------------------




--------------------------------------- Iteration      1(   6)  ---------------------------------------


    TRIAL :  cpu time   21.0919: real time   21.3077
    CORREC:  cpu time    0.0074: real time    0.0082
    --------------------------------------------
      LOOP:  cpu time   21.1000: real time   21.3193

 eigenvalue-minimisations  : 28480
 total energy-change (2. order) :-0.1331366E+00  (-0.1312857E+00)
 number of electron     180.0000000 magnetization      24.0000000
 augmentation part      180.0000000 magnetization      24.0000000

 Free energy of the ion-electron system (eV)
  ---------------------------------------------------
  alpha Z        PSCENC =       532.25742704
  Ewald energy   TEWEN  =     -8601.05107233
  -Hartree energ DENC   =     -1903.73857242
  -exchange      EXHF   =         0.00000000
  -V(xc)+E(xc)   XCENC  =      -664.61784959
  PAW double counting   =      8494.55058411    -7650.81563588
  entropy T*S    EENTRO =         0.01367444
  eigenvalues    EBANDS =      1058.34506571
  atomic energy  EATOM  =      8465.11600846
  ---------------------------------------------------
  free energy    TOTEN  =      -269.94037047 eV

  energy without entropy =     -269.95404491  energy(sigma->0) =     -269.94492861


--------------------------------------------------------------------------------------------------------




--------------------------------------- Iteration      1(   7)  ---------------------------------------


    TRIAL :  cpu time   20.8574: real time   21.9328
    CORREC:  cpu time    0.0074: real time    0.0076
    --------------------------------------------
      LOOP:  cpu time   20.8660: real time   21.9437

 eigenvalue-minimisations  : 29096
 total energy-change (2. order) :-0.1359971E-01  (-0.1352485E-01)
 number of electron     180.0000000 magnetization      24.0000000
 augmentation part      180.0000000 magnetization      24.0000000

 Free energy of the ion-electron system (eV)
  ---------------------------------------------------
  alpha Z        PSCENC =       532.25742704
  Ewald energy   TEWEN  =     -8601.05107233
  -Hartree energ DENC   =     -1903.73857242
  -exchange      EXHF   =         0.00000000
  -V(xc)+E(xc)   XCENC  =      -664.61784959
  PAW double counting   =      8494.55058411    -7650.81563588
  entropy T*S    EENTRO =         0.01363948
  eigenvalues    EBANDS =      1058.33150096
  atomic energy  EATOM  =      8465.11600846
  ---------------------------------------------------
  free energy    TOTEN  =      -269.95397018 eV

  energy without entropy =     -269.96760965  energy(sigma->0) =     -269.95851667


--------------------------------------------------------------------------------------------------------




--------------------------------------- Iteration      1(   8)  ---------------------------------------


    TRIAL :  cpu time   20.5424: real time   20.9067
    CORREC:  cpu time    0.0076: real time    0.0084
    CHARGE:  cpu time    0.9150: real time    0.9153
    --------------------------------------------
      LOOP:  cpu time   21.4662: real time   21.8343

 eigenvalue-minimisations  : 28032
 total energy-change (2. order) :-0.9536241E-03  (-0.9507952E-03)
 number of electron     179.9999997 magnetization      16.8606912
 augmentation part       42.5606708 magnetization       9.8168793

 Free energy of the ion-electron system (eV)
  ---------------------------------------------------
  alpha Z        PSCENC =       532.25742704
  Ewald energy   TEWEN  =     -8601.05107233
  -Hartree energ DENC   =     -1903.73857242
  -exchange      EXHF   =         0.00000000
  -V(xc)+E(xc)   XCENC  =      -664.61784959
  PAW double counting   =      8494.55058411    -7650.81563588
  entropy T*S    EENTRO =         0.01364357
  eigenvalues    EBANDS =      1058.33054324
  atomic energy  EATOM  =      8465.11600846
  ---------------------------------------------------
  free energy    TOTEN  =      -269.95492380 eV

  energy without entropy =     -269.96856737  energy(sigma->0) =     -269.95947166


--------------------------------------------------------------------------------------------------------




--------------------------------------- Iteration      1(   9)  ---------------------------------------


    POTLOK:  cpu time    0.2521: real time    0.2522
    SETDIJ:  cpu time    0.3036: real time    0.3406
    TRIAL :  cpu time    6.9528: real time    7.1496
    CORREC:  cpu time    2.8355: real time    2.8845
    CHARGE:  cpu time    0.9114: real time    0.9803
    --------------------------------------------
      LOOP:  cpu time   11.2601: real time   11.6136

 eigenvalue-minimisations  :     0
 total energy-change (2. order) : 0.2085688E+03  (-0.1409329E+03)
 number of electron     179.9999997 magnetization      17.6880167
 augmentation part       53.7891031 magnetization      11.5007012

 Free energy of the ion-electron system (eV)
  ---------------------------------------------------
  alpha Z        PSCENC =       532.25742704
  Ewald energy   TEWEN  =     -8601.05107233
  -Hartree energ DENC   =      -842.26673000
  -exchange      EXHF   =         0.00000000
  -V(xc)+E(xc)   XCENC  =      -694.69250804
  PAW double counting   =     12751.58102602   -11804.60480249
  entropy T*S    EENTRO =        -0.00354525
  eigenvalues    EBANDS =       132.26091954
  atomic energy  EATOM  =      8465.11600846
  ---------------------------------------------------
  free energy    TOTEN  =       -61.38608824 eV

  energy without entropy =      -61.38254299  energy(sigma->0) =      -61.38490649


--------------------------------------------------------------------------------------------------------




--------------------------------------- Iteration      1(  10)  ---------------------------------------


    POTLOK:  cpu time    0.2471: real time    0.2472
    SETDIJ:  cpu time    0.3178: real time    0.3182
    TRIAL :  cpu time    6.9326: real time    7.1856
    CORREC:  cpu time    2.8020: real time    2.8389
    CHARGE:  cpu time    0.8791: real time    0.9210
    --------------------------------------------
      LOOP:  cpu time   11.1826: real time   11.5165

 eigenvalue-minimisations  :     0
 total energy-change (2. order) :-0.1440952E+03  (-0.1210683E+02)
 number of electron     179.9999996 magnetization      17.6762836
 augmentation part       57.1681846 magnetization      11.9388941

 Free energy of the ion-electron system (eV)
  ---------------------------------------------------
  alpha Z        PSCENC =       532.25742704
  Ewald energy   TEWEN  =     -8601.05107233
  -Hartree energ DENC   =     -1344.86002616
  -exchange      EXHF   =         0.00000000
  -V(xc)+E(xc)   XCENC  =      -677.59522980
  PAW double counting   =     13515.50290372   -12678.01630962
  entropy T*S    EENTRO =        -0.00966772
  eigenvalues    EBANDS =       583.16852293
  atomic energy  EATOM  =      8465.11600846
  ---------------------------------------------------
  free energy    TOTEN  =      -205.48132101 eV

  energy without entropy =     -205.47165329  energy(sigma->0) =     -205.47809843


--------------------------------------------------------------------------------------------------------




--------------------------------------- Iteration      1(  11)  ---------------------------------------


    POTLOK:  cpu time    0.2481: real time    0.2481
    SETDIJ:  cpu time    0.3211: real time    0.3216
    TRIAL :  cpu time    6.9794: real time    7.9604
    CORREC:  cpu time    2.8470: real time    2.8723
    CHARGE:  cpu time    0.8697: real time    0.9128
    --------------------------------------------
      LOOP:  cpu time   11.2968: real time   12.3484

 eigenvalue-minimisations  :     0
 total energy-change (2. order) :-0.1227547E+02  (-0.7315793E+01)
 number of electron     179.9999996 magnetization      18.1061060
 augmentation part       58.9410267 magnetization      12.5227253

 Free energy of the ion-electron system (eV)
  ---------------------------------------------------
  alpha Z        PSCENC =       532.25742704
  Ewald energy   TEWEN  =     -8601.05107233
  -Hartree energ DENC   =     -1532.08548958
  -exchange      EXHF   =         0.00000000
  -V(xc)+E(xc)   XCENC  =      -670.82610944
  PAW double counting   =     14312.94866573   -13510.89100215
  entropy T*S    EENTRO =         0.00096152
  eigenvalues    EBANDS =       786.78444883
  atomic energy  EATOM  =      8465.11600846
  ---------------------------------------------------
  free energy    TOTEN  =      -217.75679117 eV

  energy without entropy =     -217.75775269  energy(sigma->0) =     -217.75711168


--------------------------------------------------------------------------------------------------------




--------------------------------------- Iteration      1(  12)  ---------------------------------------


    POTLOK:  cpu time    0.2446: real time    0.2819
    SETDIJ:  cpu time    0.3160: real time    0.3163
    TRIAL :  cpu time    7.0007: real time    7.1012
    CORREC:  cpu time    2.7924: real time    2.8811
    CHARGE:  cpu time    0.9123: real time    0.9126
    --------------------------------------------
      LOOP:  cpu time   11.2939: real time   11.5223

 eigenvalue-minimisations  :     0
 total energy-change (2. order) :-0.7367389E+01  (-0.8164028E+01)
 number of electron     179.9999996 magnetization      18.2687372
 augmentation part       58.5507670 magnetization      12.7809667

 Free energy of the ion-electron system (eV)
  ---------------------------------------------------
  alpha Z        PSCENC =       532.25742704
  Ewald energy   TEWEN  =     -8601.05107233
  -Hartree energ DENC   =     -1671.55054535
  -exchange      EXHF   =         0.00000000
  -V(xc)+E(xc)   XCENC  =      -666.10949481
  PAW double counting   =     14483.48122249   -13690.84833061
  entropy T*S    EENTRO =         0.01093663
  eigenvalues    EBANDS =       923.57964360
  atomic energy  EATOM  =      8465.11600846
  ---------------------------------------------------
  free energy    TOTEN  =      -225.12417998 eV

  energy without entropy =     -225.13511661  energy(sigma->0) =     -225.12782552


--------------------------------------------------------------------------------------------------------




--------------------------------------- Iteration      1(  13)  ---------------------------------------


    POTLOK:  cpu time    0.2472: real time    0.2472
    SETDIJ:  cpu time    0.3344: real time    0.3685
    TRIAL :  cpu time    6.9447: real time    7.0402
    CORREC:  cpu time    2.8541: real time    2.8932
    CHARGE:  cpu time    1.5445: real time    1.5678
    --------------------------------------------
      LOOP:  cpu time   11.9313: real time   12.1251

 eigenvalue-minimisations  :     0
 total energy-change (2. order) :-0.8179708E+01  (-0.1338060E+01)
 number of electron     179.9999997 magnetization      18.2842336
 augmentation part       57.5801552 magnetization      12.6937678

 Free energy of the ion-electron system (eV)
  ---------------------------------------------------
  alpha Z        PSCENC =       532.25742704
  Ewald energy   TEWEN  =     -8601.05107233
  -Hartree energ DENC   =     -1716.37842455
  -exchange      EXHF   =         0.00000000
  -V(xc)+E(xc)   XCENC  =      -664.99007454
  PAW double counting   =     14186.05143597   -13370.35438263
  entropy T*S    EENTRO =         0.01640928
  eigenvalues    EBANDS =       936.03425774
  atomic energy  EATOM  =      8465.11600846
  ---------------------------------------------------
  free energy    TOTEN  =      -233.30388821 eV

  energy without entropy =     -233.32029749  energy(sigma->0) =     -233.30935797


--------------------------------------------------------------------------------------------------------




--------------------------------------- Iteration      1(  14)  ---------------------------------------


    POTLOK:  cpu time    0.2555: real time    0.2557
    SETDIJ:  cpu time    0.3013: real time    0.3383
    TRIAL :  cpu time    6.9661: real time    7.1620
    CORREC:  cpu time    2.8165: real time    2.8587
    CHARGE:  cpu time    0.9049: real time    0.9276
    --------------------------------------------
      LOOP:  cpu time   11.2571: real time   11.5567

 eigenvalue-minimisations  :     0
 total energy-change (2. order) :-0.1313226E+01  (-0.5650410E+00)
 number of electron     179.9999997 magnetization      18.2696377
 augmentation part       57.2469980 magnetization      12.6102425

 Free energy of the ion-electron system (eV)
  ---------------------------------------------------
  alpha Z        PSCENC =       532.25742704
  Ewald energy   TEWEN  =     -8601.05107233
  -Hartree energ DENC   =     -1670.99950323
  -exchange      EXHF   =         0.00000000
  -V(xc)+E(xc)   XCENC  =      -666.69141625
  PAW double counting   =     13908.69239567   -13077.83271152
  entropy T*S    EENTRO =         0.01505170
  eigenvalues    EBANDS =       875.87534906
  atomic energy  EATOM  =      8465.11600846
  ---------------------------------------------------
  free energy    TOTEN  =      -234.61711383 eV

  energy without entropy =     -234.63216553  energy(sigma->0) =     -234.62213106


--------------------------------------------------------------------------------------------------------




--------------------------------------- Iteration      1(  15)  ---------------------------------------


    POTLOK:  cpu time    0.2480: real time    0.2480
    SETDIJ:  cpu time    0.2762: real time    0.3710
    TRIAL :  cpu time    6.9421: real time    7.1836
    CORREC:  cpu time    2.8138: real time    2.8569
    CHARGE:  cpu time    0.8443: real time    0.9307
    --------------------------------------------
      LOOP:  cpu time   11.1279: real time   11.5944

 eigenvalue-minimisations  :     0
 total energy-change (2. order) :-0.5618139E+00  (-0.7103048E+00)
 number of electron     179.9999996 magnetization      18.2535957
 augmentation part       57.5336760 magnetization      12.5639037

 Free energy of the ion-electron system (eV)
  ---------------------------------------------------
  alpha Z        PSCENC =       532.25742704
  Ewald energy   TEWEN  =     -8601.05107233
  -Hartree energ DENC   =     -1647.97090417
  -exchange      EXHF   =         0.00000000
  -V(xc)+E(xc)   XCENC  =      -667.41529685
  PAW double counting   =     13579.17888460   -12742.38678224
  entropy T*S    EENTRO =         0.02099657
  eigenvalues    EBANDS =       847.07775605
  atomic energy  EATOM  =      8465.11600846
  ---------------------------------------------------
  free energy    TOTEN  =      -235.17892775 eV

  energy without entropy =     -235.19992432  energy(sigma->0) =     -235.18592660


--------------------------------------------------------------------------------------------------------




--------------------------------------- Iteration      1(  16)  ---------------------------------------


    POTLOK:  cpu time    0.2474: real time    0.2474
    SETDIJ:  cpu time    0.3221: real time    0.3227
    TRIAL :  cpu time    6.9653: real time    7.8795
    CORREC:  cpu time    2.8381: real time    2.8721
    CHARGE:  cpu time    0.8937: real time    0.9327
    --------------------------------------------
      LOOP:  cpu time   11.2681: real time   12.2566

 eigenvalue-minimisations  :     0
 total energy-change (2. order) :-0.7054957E+00  (-0.2286947E+00)
 number of electron     179.9999996 magnetization      18.2553084
 augmentation part       57.9565402 magnetization      12.6171228

 Free energy of the ion-electron system (eV)
  ---------------------------------------------------
  alpha Z        PSCENC =       532.25742704
  Ewald energy   TEWEN  =     -8601.05107233
  -Hartree energ DENC   =     -1650.24013515
  -exchange      EXHF   =         0.00000000
  -V(xc)+E(xc)   XCENC  =      -667.10053622
  PAW double counting   =     13135.95502328   -12299.55822982
  entropy T*S    EENTRO =         0.02216738
  eigenvalues    EBANDS =       848.71609475
  atomic energy  EATOM  =      8465.11600846
  ---------------------------------------------------
  free energy    TOTEN  =      -235.88442343 eV

  energy without entropy =     -235.90659081  energy(sigma->0) =     -235.89181256


--------------------------------------------------------------------------------------------------------




--------------------------------------- Iteration      1(  17)  ---------------------------------------


    POTLOK:  cpu time    0.2473: real time    0.2474
    SETDIJ:  cpu time    0.3262: real time    0.3269
    TRIAL :  cpu time    6.9887: real time    7.1249
    CORREC:  cpu time    2.8246: real time    2.9057
    CHARGE:  cpu time    0.9061: real time    0.9062
    --------------------------------------------
      LOOP:  cpu time   11.3008: real time   11.5202

 eigenvalue-minimisations  :     0
 total energy-change (2. order) :-0.2279218E+00  (-0.1376836E+00)
 number of electron     179.9999996 magnetization      18.2838552
 augmentation part       58.2183679 magnetization      12.7350101

 Free energy of the ion-electron system (eV)
  ---------------------------------------------------
  alpha Z        PSCENC =       532.25742704
  Ewald energy   TEWEN  =     -8601.05107233
  -Hartree energ DENC   =     -1667.50712741
  -exchange      EXHF   =         0.00000000
  -V(xc)+E(xc)   XCENC  =      -666.32989105
  PAW double counting   =     13033.84474590   -12201.54016794
  entropy T*S    EENTRO =         0.02533753
  eigenvalues    EBANDS =       869.07556473
  atomic energy  EATOM  =      8465.11600846
  ---------------------------------------------------
  free energy    TOTEN  =      -236.11234523 eV

  energy without entropy =     -236.13768276  energy(sigma->0) =     -236.12079107


--------------------------------------------------------------------------------------------------------




--------------------------------------- Iteration      1(  18)  ---------------------------------------


    POTLOK:  cpu time    0.2475: real time    0.2475
    SETDIJ:  cpu time    0.3130: real time    0.3492
    TRIAL :  cpu time    6.9892: real time    7.0839
    CORREC:  cpu time    2.8078: real time    2.8492
    CHARGE:  cpu time    0.9053: real time    0.9279
    --------------------------------------------
      LOOP:  cpu time   11.2644: real time   11.4618

 eigenvalue-minimisations  :     0
 total energy-change (2. order) :-0.1374631E+00  (-0.1296188E+00)
 number of electron     179.9999996 magnetization      18.2850556
 augmentation part       58.1525215 magnetization      12.8504610

 Free energy of the ion-electron system (eV)
  ---------------------------------------------------
  alpha Z        PSCENC =       532.25742704
  Ewald energy   TEWEN  =     -8601.05107233
  -Hartree energ DENC   =     -1678.63615413
  -exchange      EXHF   =         0.00000000
  -V(xc)+E(xc)   XCENC  =      -665.74444180
  PAW double counting   =     13004.62803893   -12175.26411184
  entropy T*S    EENTRO =         0.02695784
  eigenvalues    EBANDS =       882.41915982
  atomic energy  EATOM  =      8465.11600846
  ---------------------------------------------------
  free energy    TOTEN  =      -236.24980832 eV

  energy without entropy =     -236.27676616  energy(sigma->0) =     -236.25879427


--------------------------------------------------------------------------------------------------------




--------------------------------------- Iteration      1(  19)  ---------------------------------------


    POTLOK:  cpu time    0.2474: real time    0.2474
    SETDIJ:  cpu time    1.0133: real time    1.0359
    TRIAL :  cpu time    7.0013: real time    7.1859
    CORREC:  cpu time    2.8073: real time    2.8865
    CHARGE:  cpu time    0.9098: real time    0.9098
    --------------------------------------------
      LOOP:  cpu time   11.9819: real time   12.2693

 eigenvalue-minimisations  :     0
 total energy-change (2. order) :-0.1292780E+00  (-0.4890072E-01)
 number of electron     179.9999996 magnetization      18.2986001
 augmentation part       57.9841528 magnetization      12.8915136

 Free energy of the ion-electron system (eV)
  ---------------------------------------------------
  alpha Z        PSCENC =       532.25742704
  Ewald energy   TEWEN  =     -8601.05107233
  -Hartree energ DENC   =     -1673.34605112
  -exchange      EXHF   =         0.00000000
  -V(xc)+E(xc)   XCENC  =      -665.70636137
  PAW double counting   =     12982.78794926   -12152.96885984
  entropy T*S    EENTRO =         0.02920033
  eigenvalues    EBANDS =       876.50491579
  atomic energy  EATOM  =      8465.11600846
  ---------------------------------------------------
  free energy    TOTEN  =      -236.37908627 eV

  energy without entropy =     -236.40828660  energy(sigma->0) =     -236.38881971


--------------------------------------------------------------------------------------------------------




--------------------------------------- Iteration      1(  20)  ---------------------------------------


    POTLOK:  cpu time    0.2478: real time    0.2478
    SETDIJ:  cpu time    0.3218: real time    0.3220
    TRIAL :  cpu time    6.9885: real time    7.2910
    CORREC:  cpu time    2.8232: real time    2.8761
    CHARGE:  cpu time    0.9009: real time    0.9461
    --------------------------------------------
      LOOP:  cpu time   11.2856: real time   11.6877

 eigenvalue-minimisations  :     0
 total energy-change (2. order) :-0.4847294E-01  (-0.3054578E-01)
 number of electron     179.9999996 magnetization      18.3193169
 augmentation part       57.8617983 magnetization      12.9248467

 Free energy of the ion-electron system (eV)
  ---------------------------------------------------
  alpha Z        PSCENC =       532.25742704
  Ewald energy   TEWEN  =     -8601.05107233
  -Hartree energ DENC   =     -1664.54252757
  -exchange      EXHF   =         0.00000000
  -V(xc)+E(xc)   XCENC  =      -665.92907433
  PAW double counting   =     12972.05596641   -12140.54262118
  entropy T*S    EENTRO =         0.02957468
  eigenvalues    EBANDS =       866.17913397
  atomic energy  EATOM  =      8465.11600846
  ---------------------------------------------------
  free energy    TOTEN  =      -236.42755921 eV

  energy without entropy =     -236.45713389  energy(sigma->0) =     -236.43741743


--------------------------------------------------------------------------------------------------------




--------------------------------------- Iteration      1(  21)  ---------------------------------------


    POTLOK:  cpu time    0.2477: real time    0.2477
    SETDIJ:  cpu time    0.3196: real time    0.3201
    TRIAL :  cpu time    6.9818: real time    7.8037
    CORREC:  cpu time    2.8701: real time    2.8957
    CHARGE:  cpu time    0.9555: real time    0.9556
    --------------------------------------------
      LOOP:  cpu time   11.3791: real time   12.2276

 eigenvalue-minimisations  :     0
 total energy-change (2. order) :-0.3050965E-01  (-0.4256542E-01)
 number of electron     179.9999996 magnetization      18.3460979
 augmentation part       57.8407836 magnetization      12.9911419

 Free energy of the ion-electron system (eV)
  ---------------------------------------------------
  alpha Z        PSCENC =       532.25742704
  Ewald energy   TEWEN  =     -8601.05107233
  -Hartree energ DENC   =     -1659.19029888
  -exchange      EXHF   =         0.00000000
  -V(xc)+E(xc)   XCENC  =      -666.04333924
  PAW double counting   =     12969.18328308   -12136.56481486
  entropy T*S    EENTRO =         0.03307427
  eigenvalues    EBANDS =       859.80516320
  atomic energy  EATOM  =      8465.11600846
  ---------------------------------------------------
  free energy    TOTEN  =      -236.45806885 eV

  energy without entropy =     -236.49114312  energy(sigma->0) =     -236.46909361


--------------------------------------------------------------------------------------------------------




--------------------------------------- Iteration      1(  22)  ---------------------------------------


    POTLOK:  cpu time    0.2470: real time    0.2470
    SETDIJ:  cpu time    0.3401: real time    0.3407
    TRIAL :  cpu time    7.1094: real time    7.1274
    CORREC:  cpu time    2.8982: real time    2.9071
    CHARGE:  cpu time    0.9126: real time    0.9358
    --------------------------------------------
      LOOP:  cpu time   11.5087: real time   11.5607

 eigenvalue-minimisations  :     0
 total energy-change (2. order) :-0.4251391E-01  (-0.1528009E-01)
 number of electron     179.9999996 magnetization      18.3713744
 augmentation part       57.9218942 magnetization      13.0317303

 Free energy of the ion-electron system (eV)
  ---------------------------------------------------
  alpha Z        PSCENC =       532.25742704
  Ewald energy   TEWEN  =     -8601.05107233
  -Hartree energ DENC   =     -1660.50122463
  -exchange      EXHF   =         0.00000000
  -V(xc)+E(xc)   XCENC  =      -665.86792925
  PAW double counting   =     12982.85878655   -12150.45155487
  entropy T*S    EENTRO =         0.03373321
  eigenvalues    EBANDS =       861.10590200
  atomic energy  EATOM  =      8465.11600846
  ---------------------------------------------------
  free energy    TOTEN  =      -236.50058276 eV

  energy without entropy =     -236.53431596  energy(sigma->0) =     -236.51182716


--------------------------------------------------------------------------------------------------------




--------------------------------------- Iteration      1(  23)  ---------------------------------------


    POTLOK:  cpu time    0.2479: real time    0.2479
    SETDIJ:  cpu time    0.3402: real time    0.3406
    TRIAL :  cpu time    7.0750: real time    7.0922
    CORREC:  cpu time    2.9002: real time    2.9014
    CHARGE:  cpu time    0.9045: real time    0.9045
    --------------------------------------------
      LOOP:  cpu time   11.4702: real time   11.4896

 eigenvalue-minimisations  :     0
 total energy-change (2. order) :-0.1525593E-01  (-0.7353398E-02)
 number of electron     179.9999996 magnetization      18.4025789
 augmentation part       57.9756834 magnetization      13.0641062

 Free energy of the ion-electron system (eV)
  ---------------------------------------------------
  alpha Z        PSCENC =       532.25742704
  Ewald energy   TEWEN  =     -8601.05107233
  -Hartree energ DENC   =     -1665.65424087
  -exchange      EXHF   =         0.00000000
  -V(xc)+E(xc)   XCENC  =      -665.63160722
  PAW double counting   =     12994.64470446   -12163.30699686
  entropy T*S    EENTRO =         0.03526394
  eigenvalues    EBANDS =       867.07620543
  atomic energy  EATOM  =      8465.11600846
  ---------------------------------------------------
  free energy    TOTEN  =      -236.51583869 eV

  energy without entropy =     -236.55110263  energy(sigma->0) =     -236.52759334


--------------------------------------------------------------------------------------------------------




--------------------------------------- Iteration      1(  24)  ---------------------------------------


    POTLOK:  cpu time    0.2470: real time    0.2470
    SETDIJ:  cpu time    0.3218: real time    0.3223
    TRIAL :  cpu time    7.6659: real time    7.7656
    CORREC:  cpu time    2.9018: real time    2.9123
    CHARGE:  cpu time    0.9724: real time    0.9723
    --------------------------------------------
      LOOP:  cpu time   12.1110: real time   12.2241

 eigenvalue-minimisations  :     0
 total energy-change (2. order) :-0.7340091E-02  (-0.1133617E-01)
 number of electron     179.9999996 magnetization      18.4610179
 augmentation part       57.9791722 magnetization      13.1179654

 Free energy of the ion-electron system (eV)
  ---------------------------------------------------
  alpha Z        PSCENC =       532.25742704
  Ewald energy   TEWEN  =     -8601.05107233
  -Hartree energ DENC   =     -1668.78060610
  -exchange      EXHF   =         0.00000000
  -V(xc)+E(xc)   XCENC  =      -665.48646344
  PAW double counting   =     12998.25477041   -12167.54799620
  entropy T*S    EENTRO =         0.03707251
  eigenvalues    EBANDS =       870.67948944
  atomic energy  EATOM  =      8465.11600846
  ---------------------------------------------------
  free energy    TOTEN  =      -236.52317878 eV

  energy without entropy =     -236.56025129  energy(sigma->0) =     -236.53553628


--------------------------------------------------------------------------------------------------------




--------------------------------------- Iteration      1(  25)  ---------------------------------------


    POTLOK:  cpu time    0.2475: real time    0.2475
    SETDIJ:  cpu time    0.3222: real time    0.3225
    TRIAL :  cpu time    7.1067: real time    7.2166
    CORREC:  cpu time    2.8412: real time    2.9280
    CHARGE:  cpu time    0.9338: real time    0.9349
    --------------------------------------------
      LOOP:  cpu time   11.4560: real time   11.6560

 eigenvalue-minimisations  :     0
 total energy-change (2. order) :-0.1132772E-01  (-0.6256899E-02)
 number of electron     179.9999996 magnetization      18.5057829
 augmentation part       57.9357920 magnetization      13.1541936

 Free energy of the ion-electron system (eV)
  ---------------------------------------------------
  alpha Z        PSCENC =       532.25742704
  Ewald energy   TEWEN  =     -8601.05107233
  -Hartree energ DENC   =     -1668.95568655
  -exchange      EXHF   =         0.00000000
  -V(xc)+E(xc)   XCENC  =      -665.41577140
  PAW double counting   =     12991.36071201   -12160.66195247
  entropy T*S    EENTRO =         0.03865187
[...]
  8.439  14.380  -0.000  -0.000   0.000  -0.000  -0.000   0.000
 14.380  24.507  -0.000  -0.000   0.000  -0.001  -0.000   0.001
 -0.000  -0.000   1.996   0.000   0.000   5.749   0.000   0.000
 -0.000  -0.000   0.000   1.996  -0.000   0.000   5.748  -0.000
  0.000   0.000   0.000  -0.000   1.996   0.000  -0.000   5.749
 -0.000  -0.001   5.749   0.000   0.000  16.475   0.000   0.000
 -0.000  -0.000   0.000   5.748  -0.000   0.000  16.472  -0.000
  0.000   0.001   0.000  -0.000   5.749   0.000  -0.000  16.476
 total augmentation occupancy for first ion, spin component:           1
  4.378  -1.253  -0.001   0.000  -0.001  -0.000  -0.000   0.000
 -1.253   0.378  -0.000   0.001   0.000   0.000  -0.000  -0.000
 -0.001  -0.000   1.429  -0.002   0.003  -0.102  -0.000  -0.000
  0.000   0.001  -0.002   1.497  -0.002  -0.000  -0.101   0.000
 -0.001   0.000   0.003  -0.002   1.419  -0.000   0.000  -0.101
 -0.000   0.000  -0.102  -0.000  -0.000   0.008   0.000   0.000
 -0.000  -0.000  -0.000  -0.101   0.000   0.000   0.007  -0.000
  0.000  -0.000  -0.000   0.000  -0.101   0.000  -0.000   0.008
 total augmentation occupancy for first ion, spin component:           2
 -0.082   0.024  -0.019  -0.023   0.019   0.001   0.001  -0.001
  0.024  -0.008  -0.001  -0.003   0.002   0.000   0.000  -0.000
 -0.019  -0.001  -0.032  -0.023  -0.047   0.002   0.000   0.001
 -0.023  -0.003  -0.023  -0.047   0.026   0.000   0.002  -0.001
  0.019   0.002  -0.047   0.026  -0.026   0.001  -0.001   0.002
  0.001   0.000   0.002   0.000   0.001  -0.000   0.000   0.000
  0.001   0.000   0.000   0.002  -0.001   0.000  -0.000  -0.000
 -0.001  -0.000   0.001  -0.001   0.002   0.000  -0.000  -0.000


------------------------ aborting loop because EDIFF is reached ----------------------------------------


 


 total charge     
 
# of ion       s       p       d       tot
------------------------------------------
    1        0.404   0.430   0.000   0.834
    2        0.404   0.430   0.000   0.834
    3        0.405   0.424   0.000   0.829
    4        0.406   0.424   0.000   0.829
    5        0.405   0.426   0.000   0.831
    6        0.404   0.426   0.000   0.831
    7        0.405   0.429   0.000   0.834
    8        0.405   0.428   0.000   0.833
    9        0.406   0.425   0.000   0.830
   10        0.406   0.425   0.000   0.831
   11        0.404   0.429   0.000   0.833
   12        0.404   0.429   0.000   0.833
   13        0.406   0.426   0.000   0.831
   14        0.406   0.426   0.000   0.831
   15        0.406   0.429   0.000   0.834
   16        0.405   0.429   0.000   0.835
   17        0.405   0.424   0.000   0.830
   18        0.405   0.424   0.000   0.829
   19        0.336   0.355   5.116   5.808
   20        0.335   0.354   5.122   5.810
   21        0.333   0.352   5.112   5.796
   22        0.336   0.356   5.104   5.795
   23        0.342   0.357   5.110   5.808
   24        0.342   0.361   5.099   5.802
   25        0.330   0.349   5.159   5.838
   26        0.333   0.361   5.114   5.809
   27        0.332   0.362   5.088   5.782
   28        0.330   0.351   5.152   5.833
   29        0.337   0.354   5.133   5.824
   30        0.335   0.353   5.143   5.832
   31        0.332   0.359   5.147   5.838
   32        0.330   0.352   5.155   5.837
   33        0.331   0.346   5.155   5.833
   34        0.336   0.358   5.120   5.814
   35        0.335   0.348   5.176   5.859
   36        0.336   0.356   5.152   5.844
--------------------------------------------------
tot         13.310  14.067  92.357 119.734
 


 magnetization (x)
 
# of ion       s       p       d       tot
------------------------------------------
    1       -0.008  -0.012   0.000  -0.019
    2       -0.008  -0.012   0.000  -0.019
    3       -0.013  -0.025   0.000  -0.038
    4       -0.013  -0.025   0.000  -0.038
    5       -0.011  -0.020   0.000  -0.031
    6       -0.011  -0.021   0.000  -0.032
    7       -0.006  -0.010   0.000  -0.016
    8       -0.006  -0.010   0.000  -0.016
    9       -0.010  -0.017   0.000  -0.027
   10       -0.010  -0.017   0.000  -0.027
   11       -0.007  -0.011   0.000  -0.018
   12       -0.007  -0.011   0.000  -0.018
   13       -0.010  -0.019   0.000  -0.030
   14       -0.010  -0.020   0.000  -0.030
   15       -0.009  -0.011   0.000  -0.021
   16       -0.009  -0.012   0.000  -0.021
   17       -0.014  -0.025   0.000  -0.039
   18       -0.014  -0.026   0.000  -0.040
   19        0.034   0.024   2.433   2.491
   20        0.032   0.016   2.359   2.407
   21        0.022   0.010   2.256   2.288
   22        0.028   0.024   2.312   2.364
   23       -0.043  -0.019  -2.657  -2.719
   24       -0.046  -0.027  -2.707  -2.781
   25       -0.026  -0.036  -1.887  -1.949
   26        0.020   0.037   2.356   2.413
   27        0.013   0.033   2.331   2.377
   28       -0.032  -0.036  -2.022  -2.090
   29        0.035   0.023   2.440   2.498
   30        0.032   0.016   2.363   2.411
   31        0.014   0.033   2.288   2.335
   32       -0.032  -0.037  -2.020  -2.089
   33        0.012  -0.001   2.199   2.210
   34        0.024   0.032   2.373   2.429
   35        0.024   0.010   2.245   2.279
   36        0.028   0.022   2.310   2.360
--------------------------------------------------
tot         -0.039  -0.178  18.970  18.753
 
    FORLOC:  cpu time    0.0294: real time    0.0294
    FORNL :  cpu time   10.3165: real time   10.4511
    STRESS:  cpu time   15.1520: real time   16.2022
    FORCOR:  cpu time    0.2951: real time    0.2951
    OFIELD:  cpu time    0.0014: real time    0.0014

  FORCE on cell =-STRESS in cart. coord.  units (eV):
  Direction    XX          YY          ZZ          XY          YZ          ZX
  --------------------------------------------------------------------------------------
  Alpha Z   532.25743   532.25743   532.25743
  Ewald   -2702.40749 -2702.40749 -3196.26924    -0.00000    -0.00000    -0.00000
  Hartree   720.04830   720.04830   226.32175     0.58019    -0.00000    -0.00000
  E(xc)    -760.20281  -760.20281  -760.73411    -0.24201    -0.00000    -0.00000
  Local     250.73837   250.73837  1259.63900    -1.94545     0.00000     0.00000
  n-local  -111.14418  -107.97957  -121.42004    -0.44477    -0.08322    -0.21820
  augment   520.52355   520.52355   516.16258     0.75958     0.00001     0.00001
  Kinetic  1552.21378  1556.49326  1544.40841     2.08407     0.96612     0.18369
  Fock        0.00000     0.00000     0.00000     0.00000     0.00000     0.00000
  -------------------------------------------------------------------------------------
  Total       5.74899     5.74899     0.36579     0.79331     0.00000     0.00000
  in kB      19.46207    19.46207     1.23830     2.68561     0.00000     0.00000
  external pressure =       13.39 kB  Pullay stress =        0.00 kB


 VOLUME and BASIS-vectors are now :
 -----------------------------------------------------------------------------
  energy-cutoff  :      404.80
  volume of cell :      473.27
      direct lattice vectors                 reciprocal lattice vectors
     8.250148166  0.000000000  0.000000000     0.121209944  0.000000000  0.000000000
     0.000000000  8.250148166  0.000000000     0.000000000  0.121209944  0.000000000
     0.000000000  0.000000000  6.953274261     0.000000000  0.000000000  0.143817137

  length of vectors
     8.250148166  8.250148166  6.953274261     0.121209944  0.121209944  0.143817137


 FORCES acting on ions:
    Electron-Ion                     Ewald-Force                    Non-Local-Force
 -----------------------------------------------------------------------------------------------
   -.109E+00 0.102E+00 0.998E-01   -.239E-08 -.239E-08 0.411E-08   0.346E-01 -.897E-02 -.297E-01
   -.109E+00 0.102E+00 -.998E-01   -.239E-08 -.239E-08 0.411E-08   0.346E-01 -.897E-02 0.297E-01
   -.397E-01 -.743E-02 -.443E-01   -.239E-08 -.802E-09 0.411E-08   0.573E-01 0.272E-01 0.524E-01
   -.397E-01 -.743E-02 0.443E-01   -.239E-08 -.802E-09 0.411E-08   0.573E-01 0.272E-01 -.524E-01
   -.107E+00 -.107E+00 -.333E-01   -.239E-08 0.631E-08 0.411E-08   -.194E-01 -.194E-01 0.325E-01
   -.107E+00 -.107E+00 0.333E-01   -.239E-08 0.631E-08 0.411E-08   -.194E-01 -.194E-01 -.325E-01
   0.123E+00 0.123E+00 -.120E+00   -.802E-09 -.239E-08 0.411E-08   -.281E-01 -.281E-01 0.133E-01
   0.123E+00 0.123E+00 0.120E+00   -.802E-09 -.239E-08 0.411E-08   -.281E-01 -.281E-01 -.133E-01
   -.988E-01 -.263E-01 -.723E-02   -.802E-09 -.802E-09 0.411E-08   -.230E-01 -.638E-02 -.106E-02
   -.988E-01 -.263E-01 0.723E-02   -.802E-09 -.802E-09 0.411E-08   -.230E-01 -.638E-02 0.106E-02
   0.102E+00 -.109E+00 0.998E-01   -.802E-09 0.631E-08 0.411E-08   -.897E-02 0.346E-01 -.297E-01
   0.102E+00 -.109E+00 -.998E-01   -.802E-09 0.631E-08 0.411E-08   -.897E-02 0.346E-01 0.297E-01
   -.263E-01 -.988E-01 -.723E-02   0.631E-08 -.239E-08 0.411E-08   -.638E-02 -.230E-01 -.106E-02
   -.263E-01 -.988E-01 0.723E-02   0.631E-08 -.239E-08 0.411E-08   -.638E-02 -.230E-01 0.106E-02
   0.175E+00 0.175E+00 0.125E+00   0.631E-08 -.802E-09 0.411E-08   -.384E-01 -.384E-01 -.269E-01
   0.175E+00 0.175E+00 -.125E+00   0.631E-08 -.802E-09 0.411E-08   -.384E-01 -.384E-01 0.269E-01
   -.743E-02 -.397E-01 -.443E-01   0.631E-08 0.631E-08 0.411E-08   0.272E-01 0.573E-01 0.524E-01
   -.743E-02 -.397E-01 0.443E-01   0.631E-08 0.631E-08 0.411E-08   0.272E-01 0.573E-01 -.524E-01
   -.414E+00 0.322E+00 0.497E-09   -.169E-07 -.169E-07 -.411E-08   0.817E-01 -.976E-01 0.000E+00
   0.462E+00 0.369E+00 -.491E-08   -.169E-07 -.169E-07 -.411E-08   -.195E+00 -.231E+00 0.000E+00
   0.467E-01 -.332E+00 -.262E-08   -.169E-07 0.802E-09 -.411E-08   0.152E-01 0.299E+00 0.000E+00
   -.459E+00 -.372E+00 -.270E-08   -.169E-07 0.802E-09 -.411E-08   0.185E+00 0.249E+00 0.000E+00
   0.351E-01 0.351E-01 -.194E-08   -.169E-07 0.130E-07 -.411E-08   -.281E-01 -.281E-01 0.000E+00
   0.912E-01 0.912E-01 -.344E-08   -.169E-07 0.130E-07 -.411E-08   -.117E+00 -.117E+00 0.000E+00
   -.417E+00 -.417E+00 0.302E-08   0.802E-09 -.169E-07 -.411E-08   0.388E+00 0.388E+00 0.000E+00
   -.654E+00 -.654E+00 -.644E-08   0.802E-09 -.169E-07 -.411E-08   0.418E+00 0.418E+00 0.000E+00
   -.148E+00 0.563E+00 -.251E-09   0.802E-09 0.802E-09 -.411E-08   0.184E+00 -.426E+00 0.000E+00
   -.149E+00 0.377E+00 -.403E-08   0.802E-09 0.802E-09 -.411E-08   0.171E+00 -.377E+00 0.000E+00
   0.322E+00 -.414E+00 0.486E-09   0.802E-09 0.130E-07 -.411E-08   -.976E-01 0.817E-01 0.000E+00
   0.369E+00 0.462E+00 -.493E-08   0.802E-09 0.130E-07 -.411E-08   -.231E+00 -.195E+00 0.000E+00
   0.563E+00 -.148E+00 -.233E-09   0.130E-07 -.169E-07 -.411E-08   -.426E+00 0.184E+00 0.000E+00
   0.377E+00 -.149E+00 -.403E-08   0.130E-07 -.169E-07 -.411E-08   -.377E+00 0.171E+00 0.000E+00
   0.404E-01 0.404E-01 -.314E-08   0.130E-07 0.802E-09 -.411E-08   -.109E+00 -.109E+00 0.000E+00
   0.610E+00 0.610E+00 -.180E-08   0.130E-07 0.802E-09 -.411E-08   -.397E+00 -.397E+00 0.000E+00
   -.332E+00 0.467E-01 -.260E-08   0.130E-07 0.130E-07 -.411E-08   0.299E+00 0.152E-01 0.000E+00
   -.372E+00 -.459E+00 -.270E-08   0.130E-07 0.130E-07 -.411E-08   0.249E+00 0.185E+00 0.000E+00
 -----------------------------------------------------------------------------------------------
   -.472E-02 -.472E-02 -.782E-07   -.197E-14 0.275E-13 0.265E-14   0.470E-02 0.470E-02 0.694E-17
 
 
 POSITION                                       TOTAL-FORCE (eV/Angst)
 -----------------------------------------------------------------------------------
      0.00000      0.00000      0.00000        -0.078512      0.095202      0.072195
      0.00000      0.00000      3.47664        -0.078512      0.095202     -0.072195
      0.00000      2.75005      0.00000         0.011667      0.016360      0.002223
      0.00000      2.75005      3.47664         0.011667      0.016360     -0.002223
      0.00000      5.50010      0.00000        -0.124679     -0.124679     -0.004470
      0.00000      5.50010      3.47664        -0.124679     -0.124679      0.004470
      2.75005      0.00000      0.00000         0.098327      0.098327     -0.108212
      2.75005      0.00000      3.47664         0.098327      0.098327      0.108212
      2.75005      2.75005      0.00000        -0.118339     -0.032608     -0.008450
      2.75005      2.75005      3.47664        -0.118339     -0.032608      0.008450
      2.75005      5.50010      0.00000         0.095202     -0.078512      0.072195
      2.75005      5.50010      3.47664         0.095202     -0.078512     -0.072195
      5.50010      0.00000      0.00000        -0.032608     -0.118339     -0.008450
      5.50010      0.00000      3.47664        -0.032608     -0.118339      0.008450
      5.50010      2.75005      0.00000         0.140462      0.140462      0.099753
      5.50010      2.75005      3.47664         0.140462      0.140462     -0.099753
      5.50010      5.50010      0.00000         0.016360      0.011667      0.002223
      5.50010      5.50010      3.47664         0.016360      0.011667     -0.002223
      1.37502      1.37502      1.73832        -0.344232      0.225502      0.000000
      1.37502      1.37502      5.21496         0.277776      0.140491      0.000000
      1.37502      4.12507      1.73832         0.059614     -0.036914      0.000000
      1.37502      4.12507      5.21496        -0.285134     -0.122600      0.000000
      1.37502      6.87512      1.73832         0.010053      0.010053      0.000000
      1.37502      6.87512      5.21496        -0.022961     -0.022961      0.000000
      4.12507      1.37502      1.73832        -0.036574     -0.036574      0.000000
      4.12507      1.37502      5.21496        -0.240974     -0.240974      0.000000
      4.12507      4.12507      1.73832         0.033832      0.144532      0.000000
      4.12507      4.12507      5.21496         0.022000      0.003156      0.000000
      4.12507      6.87512      1.73832         0.225502     -0.344232      0.000000
      4.12507      6.87512      5.21496         0.140491      0.277776      0.000000
      6.87512      1.37502      1.73832         0.144532      0.033832      0.000000
      6.87512      1.37502      5.21496         0.003156      0.022000      0.000000
      6.87512      4.12507      1.73832        -0.066361     -0.066361      0.000000
      6.87512      4.12507      5.21496         0.223035      0.223035      0.000000
      6.87512      6.87512      1.73832        -0.036914      0.059614      0.000000
      6.87512      6.87512      5.21496        -0.122600     -0.285134      0.000000
 -----------------------------------------------------------------------------------
    total drift:                               -0.000023     -0.000023     -0.000000


--------------------------------------------------------------------------------------------------------



  FREE ENERGIE OF THE ION-ELECTRON SYSTEM (eV)
  ---------------------------------------------------
  free  energy   TOTEN  =      -236.56053624 eV

  energy  without entropy=     -236.60958812  energy(sigma->0) =     -236.57688687
 


--------------------------------------------------------------------------------------------------------


    POTLOK:  cpu time    0.6009: real time    0.6010


--------------------------------------------------------------------------------------------------------


     LOOP+:  cpu time  829.3448: real time  849.7991
    4ORBIT:  cpu time    0.0000: real time    0.0000
 


 total charge     
 
# of ion       s       p       d       tot
------------------------------------------
    1        0.404   0.430   0.000   0.834
    2        0.404   0.430   0.000   0.834
    3        0.405   0.424   0.000   0.829
    4        0.406   0.424   0.000   0.829
    5        0.405   0.426   0.000   0.831
    6        0.404   0.426   0.000   0.831
    7        0.405   0.429   0.000   0.834
    8        0.405   0.428   0.000   0.833
    9        0.406   0.425   0.000   0.830
   10        0.406   0.425   0.000   0.831
   11        0.404   0.429   0.000   0.833
   12        0.404   0.429   0.000   0.833
   13        0.406   0.426   0.000   0.831
   14        0.406   0.426   0.000   0.831
   15        0.406   0.429   0.000   0.834
   16        0.405   0.429   0.000   0.835
   17        0.405   0.424   0.000   0.830
   18        0.405   0.424   0.000   0.829
   19        0.336   0.355   5.116   5.808
   20        0.335   0.354   5.122   5.810
   21        0.333   0.352   5.112   5.796
   22        0.336   0.356   5.104   5.795
   23        0.342   0.357   5.110   5.808
   24        0.342   0.361   5.099   5.802
   25        0.330   0.349   5.159   5.838
   26        0.333   0.361   5.114   5.809
   27        0.332   0.362   5.088   5.782
   28        0.330   0.351   5.152   5.833
   29        0.337   0.354   5.133   5.824
   30        0.335   0.353   5.143   5.832
   31        0.332   0.359   5.147   5.838
   32        0.330   0.352   5.155   5.837
   33        0.331   0.346   5.155   5.833
   34        0.336   0.358   5.120   5.814
   35        0.335   0.348   5.176   5.859
   36        0.336   0.356   5.152   5.844
--------------------------------------------------
tot         13.310  14.067  92.357 119.734
 


 magnetization (x)
 
# of ion       s       p       d       tot
------------------------------------------
    1       -0.008  -0.012   0.000  -0.019
    2       -0.008  -0.012   0.000  -0.019
    3       -0.013  -0.025   0.000  -0.038
    4       -0.013  -0.025   0.000  -0.038
    5       -0.011  -0.020   0.000  -0.031
    6       -0.011  -0.021   0.000  -0.032
    7       -0.006  -0.010   0.000  -0.016
    8       -0.006  -0.010   0.000  -0.016
    9       -0.010  -0.017   0.000  -0.027
   10       -0.010  -0.017   0.000  -0.027
   11       -0.007  -0.011   0.000  -0.018
   12       -0.007  -0.011   0.000  -0.018
   13       -0.010  -0.019   0.000  -0.030
   14       -0.010  -0.020   0.000  -0.030
   15       -0.009  -0.011   0.000  -0.021
   16       -0.009  -0.012   0.000  -0.021
   17       -0.014  -0.025   0.000  -0.039
   18       -0.014  -0.026   0.000  -0.040
   19        0.034   0.024   2.433   2.491
   20        0.032   0.016   2.359   2.407
   21        0.022   0.010   2.256   2.288
   22        0.028   0.024   2.312   2.364
   23       -0.043  -0.019  -2.657  -2.719
   24       -0.046  -0.027  -2.707  -2.781
   25       -0.026  -0.036  -1.887  -1.949
   26        0.020   0.037   2.356   2.413
   27        0.013   0.033   2.331   2.377
   28       -0.032  -0.036  -2.022  -2.090
   29        0.035   0.023   2.440   2.498
   30        0.032   0.016   2.363   2.411
   31        0.014   0.033   2.288   2.335
   32       -0.032  -0.037  -2.020  -2.089
   33        0.012  -0.001   2.199   2.210
   34        0.024   0.032   2.373   2.429
   35        0.024   0.010   2.245   2.279
   36        0.028   0.022   2.310   2.360
--------------------------------------------------
tot         -0.039  -0.178  18.970  18.753
 

 total amount of memory used by VASP MPI-rank0   581658. kBytes
=======================================================================

   base      :      30000. kBytes
   nonl-proj :      24142. kBytes
   fftplans  :      21726. kBytes
   grid      :      14732. kBytes
   one-center:        279. kBytes
   wavefun   :     490779. kBytes
 
  
  
 General timing and accounting informations for this job:
 ========================================================
  
                  Total CPU time used (sec):      849.449
                            User time (sec):      832.362
                          System time (sec):       17.087
                         Elapsed time (sec):      871.630
  
                   Maximum memory used (kb):      716060.
                   Average memory used (kb):           0.
  
                          Minor page faults:       316110
                          Major page faults:           16
                 Voluntary context switches:         3190
