   36   36    1    2
  0.1314651E+02  0.8250148E-09  0.8250148E-09  0.6953274E-09  0.2000000E-15
  1.000000000000000E-004
  CAR 
 AlMn_pv                                 
    180     52    110
 
  0.0000000E+00  0.0000000E+00  0.0000000E+00  0.6666667E-02
    1       -2.518377     -2.522772   1.000000   1.000000
    2       -0.360430     -0.354828   1.000000   1.000000
    3       -0.344597     -0.349250   1.000000   1.000000
    4       -0.331381     -0.332524   1.000000   1.000000
    5       -0.304548     -0.324118   1.000000   1.000000
    6       -0.124216     -0.127588   1.000000   1.000000
    7        1.371804      1.360428   1.000000   1.000000
    8        1.393300      1.370708   1.000000   1.000000
    9        1.397976      1.384804   1.000000   1.000000
   10        1.401021      1.394720   1.000000   1.000000
   11        1.414377      1.416131   1.000000   1.000000
   12        1.569210      1.553795   1.000000   1.000000
   13        1.579428      1.561194   1.000000   1.000000
   14        1.611003      1.615285   1.000000   1.000000
   15        1.616953      1.621904   1.000000   1.000000
   16        2.751049      2.727680   1.000000   1.000000
   17        2.751914      2.736011   1.000000   1.000000
   18        2.824687      2.798182   1.000000   1.000000
   19        2.830867      2.802388   1.000000   1.000000
   20        3.492224      3.502415   1.000000   1.000000
   21        3.551484      3.542293   1.000000   1.000000
   22        3.567423      3.561638   1.000000   1.000000
   23        3.616685      3.593392   1.000000   1.000000
   24        4.123851      4.107080   1.000000   1.000000
   25        4.235248      4.182671   1.000000   1.000000
   26        4.291982      4.286334   1.000000   1.000000
   27        4.442143      4.411394   1.000000   1.000000
   28        4.553853      4.541706   1.000000   1.000000
   29        4.619141      4.599315   1.000000   1.000000
   30        4.633821      4.616878   1.000000   1.000000
   31        4.661938      4.651102   1.000000   1.000000
   32        4.755780      4.663956   1.000000   1.000000
   33        4.782666      4.682264   1.000000   1.000000
   34        4.796372      4.758895   1.000000   1.000000
   35        4.844356      4.817557   1.000000   1.000000
   36        4.877555      4.827628   1.000000   1.000000
   37        4.919770      4.890596   1.000000   1.000000
   38        4.921824      5.012538   1.000000   1.000000
   39        5.169626      5.152314   1.000000   1.000000
   40        5.210623      5.180570   1.000000   1.000000
   41        5.224543      5.196243   1.000000   1.000000
   42        5.296635      5.210128   1.000000   1.000000
   43        5.303204      5.239661   1.000000   1.000000
   44        5.409132      5.315022   1.000000   1.000000
   45        5.438199      5.387867   1.000000   1.000000
   46        5.442977      5.405307   1.000000   1.000000
   47        5.503365      5.463408   1.000000   1.000000
   48        5.535884      5.509340   1.000000   1.000000
   49        5.593656      5.528906   1.000000   1.000000
   50        5.659425      5.572004   1.000000   1.000000
   51        5.681126      5.647281   1.000000   1.000000
   52        5.814263      5.710464   1.000000   1.000000
   53        5.851313      5.751082   1.000000   1.000000
   54        5.881871      5.844675   1.000000   1.000000
   55        6.074447      5.862655   1.000000   1.000000
   56        6.118204      6.086525   1.000000   1.000000
   57        6.178739      6.125169   1.000000   1.000000
   58        6.194129      6.138603   1.000000   1.000000
   59        6.226587      6.205113   1.000000   1.000000
   60        6.280498      6.236923   1.000000   1.000000
   61        6.286493      6.294904   1.000000   1.000000
   62        6.410232      6.324893   1.000000   1.000000
   63        6.412068      6.354232   1.000000   1.000000
   64        6.445577      6.380097   1.000000   1.000000
   65        6.450497      6.414499   1.000000   1.000000
   66        6.462479      6.430944   1.000000   1.000000
   67        6.486579      6.443283   1.000000   1.000000
   68        6.520323      6.471442   1.000000   1.000000
   69        6.541750      6.520772   1.000000   1.000000
   70        6.566617      6.553466   1.000000   1.000000
   71        6.587404      6.575103   1.000000   1.000000
   72        6.640822      6.604665   1.000000   1.000000
   73        6.654359      6.628743   1.000000   1.000000
   74        6.695058      6.660791   1.000000   1.000000
   75        6.707976      6.712525   1.000000   1.000000
   76        6.733601      6.736882   1.000000   1.000000
   77        6.781650      6.767731   1.000000   1.000000
   78        6.878437      6.802411   1.000000   1.000000
   79        6.934465      6.822467   1.000000   1.000000
   80        7.009486      6.914775   1.000002   1.000000
   81        7.058849      7.132802   1.000009   1.000087
   82        7.121179      7.221504   1.000063   1.000845
   83        7.180919      7.363813   1.000316   1.012319
   84        7.412258      7.365456   1.022377   1.012610
   85        7.413504      7.412121   1.022626   1.022320
   86        7.580309      7.504684   0.983265   1.034614
   87        7.594217      7.522539   0.961781   1.030540
   88        7.613040      7.577683   0.925167   0.987009
   89        7.853607      7.588234   0.083857   0.971207
   90        7.885218      7.748824   0.024011   0.441216
   91        7.908030      7.804266  -0.004547   0.226414
   92        7.983637      7.865282  -0.035413   0.058623
   93        8.025066      7.910489  -0.029829  -0.007020
   94        8.065428      8.000486  -0.020742  -0.034088
   95        8.128150      8.062773  -0.008960  -0.021327
   96        8.175647      8.111673  -0.003950  -0.011492
   97        8.216293      8.137695  -0.001751  -0.007688
   98        8.258527      8.225400  -0.000680  -0.001442
   99        8.278107      8.296484  -0.000422  -0.000264
  100        8.389552      8.320752  -0.000019  -0.000139
  101        8.437323      8.423605  -0.000004  -0.000006
  102        8.529846      8.506584  -0.000000  -0.000000
  103        8.585231      8.597362  -0.000000  -0.000000
  104        8.628970      8.617692  -0.000000  -0.000000
  105        8.707159      8.698211  -0.000000  -0.000000
  106        8.764613      8.755281  -0.000000  -0.000000
  107        8.768641      8.783497  -0.000000  -0.000000
  108        8.814703      8.817208  -0.000000  -0.000000
  109        8.855074      8.835128  -0.000000  -0.000000
  110        8.874692      8.867096  -0.000000  -0.000000
 
  0.2000000E+00  0.0000000E+00  0.0000000E+00  0.1333333E-01
    1       -2.427860     -2.432250   1.000000   1.000000
    2       -1.101758     -1.106168   1.000000   1.000000
    3       -0.266558     -0.267055   1.000000   1.000000
    4       -0.238339     -0.247885   1.000000   1.000000
    5       -0.058168     -0.061910   1.000000   1.000000
    6        0.569069      0.562621   1.000000   1.000000
    7        0.886130      0.875038   1.000000   1.000000
    8        0.927780      0.927130   1.000000   1.000000
    9        0.943812      0.935071   1.000000   1.000000
   10        1.435825      1.425301   1.000000   1.000000
   11        1.474193      1.469624   1.000000   1.000000
   12        1.496259      1.490970   1.000000   1.000000
   13        1.933738      1.907533   1.000000   1.000000
   14        2.305995      2.298839   1.000000   1.000000
   15        2.322803      2.304824   1.000000   1.000000
   16        2.333319      2.326225   1.000000   1.000000
   17        2.343946      2.329189   1.000000   1.000000
   18        2.836126      2.831471   1.000000   1.000000
   19        3.233499      3.200703   1.000000   1.000000
   20        3.285379      3.245615   1.000000   1.000000
   21        3.594771      3.589986   1.000000   1.000000
   22        3.652910      3.645748   1.000000   1.000000
   23        3.746739      3.736500   1.000000   1.000000
   24        4.102813      4.088078   1.000000   1.000000
   25        4.202064      4.145617   1.000000   1.000000
   26        4.224540      4.247035   1.000000   1.000000
   27        4.320542      4.309901   1.000000   1.000000
   28        4.417899      4.348934   1.000000   1.000000
   29        4.583750      4.534361   1.000000   1.000000
   30        4.595002      4.553565   1.000000   1.000000
   31        4.630970      4.580186   1.000000   1.000000
   32        4.632282      4.587950   1.000000   1.000000
   33        4.698500      4.685664   1.000000   1.000000
   34        4.790015      4.830262   1.000000   1.000000
   35        4.902493      4.831401   1.000000   1.000000
   36        4.915541      4.951906   1.000000   1.000000
   37        5.023071      4.971504   1.000000   1.000000
   38        5.047136      5.023276   1.000000   1.000000
   39        5.077016      5.024921   1.000000   1.000000
   40        5.110335      5.050145   1.000000   1.000000
   41        5.177767      5.116264   1.000000   1.000000
   42        5.183367      5.215482   1.000000   1.000000
   43        5.252503      5.226897   1.000000   1.000000
   44        5.424310      5.303171   1.000000   1.000000
   45        5.436496      5.388839   1.000000   1.000000
   46        5.477649      5.408846   1.000000   1.000000
   47        5.519841      5.453891   1.000000   1.000000
   48        5.589615      5.532052   1.000000   1.000000
   49        5.632500      5.564376   1.000000   1.000000
   50        5.679412      5.624036   1.000000   1.000000
   51        5.699755      5.658627   1.000000   1.000000
   52        5.749091      5.738016   1.000000   1.000000
   53        5.858291      5.827986   1.000000   1.000000
   54        5.917718      5.845063   1.000000   1.000000
   55        5.995056      5.898197   1.000000   1.000000
   56        6.019225      6.054256   1.000000   1.000000
   57        6.141702      6.067356   1.000000   1.000000
   58        6.229697      6.135912   1.000000   1.000000
   59        6.238470      6.170473   1.000000   1.000000
   60        6.244584      6.236163   1.000000   1.000000
   61        6.345840      6.248418   1.000000   1.000000
   62        6.368418      6.298558   1.000000   1.000000
   63        6.388631      6.325770   1.000000   1.000000
   64        6.414853      6.345523   1.000000   1.000000
   65        6.436856      6.383092   1.000000   1.000000
   66        6.468782      6.416324   1.000000   1.000000
   67        6.469812      6.430616   1.000000   1.000000
   68        6.517477      6.473100   1.000000   1.000000
   69        6.542362      6.476196   1.000000   1.000000
   70        6.568457      6.561255   1.000000   1.000000
   71        6.574120      6.591294   1.000000   1.000000
   72        6.614284      6.606502   1.000000   1.000000
   73        6.708522      6.651482   1.000000   1.000000
   74        6.709903      6.652200   1.000000   1.000000
   75        6.752039      6.672829   1.000000   1.000000
   76        6.781972      6.683985   1.000000   1.000000
   77        6.841562      6.778344   1.000000   1.000000
   78        6.866392      6.814811   1.000000   1.000000
   79        6.913981      6.847717   1.000000   1.000000
   80        6.926947      6.958342   1.000000   1.000000
   81        7.106429      7.046974   1.000041   1.000006
   82        7.135538      7.113478   1.000094   1.000050
   83        7.182519      7.360075   1.000329   1.011668
   84        7.342415      7.384538   1.008957   1.016277
   85        7.407392      7.400833   1.021224   1.019755
   86        7.453321      7.466018   1.031401   1.033530
   87        7.610527      7.470186   0.930481   1.034083
   88        7.630228      7.603571   0.883634   0.944654
   89        7.862137      7.605406   0.065281   0.940530
   90        7.894099      7.769448   0.011478   0.356218
   91        7.900645      7.838090   0.003291   0.122284
   92        7.934253      7.905140  -0.024564  -0.001600
   93        8.004937      7.988575  -0.033476  -0.035204
   94        8.097586      8.017645  -0.013983  -0.031329
   95        8.123090      8.058019  -0.009685  -0.022426
   96        8.179297      8.160908  -0.003692  -0.005178
   97        8.246230      8.241910  -0.000904  -0.000999
   98        8.280547      8.261155  -0.000397  -0.000637
   99        8.336219      8.294209  -0.000091  -0.000281
  100        8.357827      8.366503  -0.000049  -0.000038
  101        8.438842      8.371455  -0.000004  -0.000033
  102        8.516895      8.492551  -0.000000  -0.000001
  103        8.549362      8.513938  -0.000000  -0.000000
  104        8.593238      8.581081  -0.000000  -0.000000
  105        8.696272      8.609657  -0.000000  -0.000000
  106        8.723378      8.635397  -0.000000  -0.000000
  107        8.821076      8.762707  -0.000000  -0.000000
  108        8.864369      8.917023  -0.000000  -0.000000
  109        8.955794      8.940557  -0.000000  -0.000000
  110        8.975063      8.985054  -0.000000  -0.000000
 
  0.4000000E+00  0.0000000E+00  0.0000000E+00  0.1333333E-01
    1       -2.158067     -2.162416   1.000000   1.000000
    2       -1.712631     -1.717119   1.000000   1.000000
    3       -0.020423     -0.020439   1.000000   1.000000
    4        0.006137     -0.004088   1.000000   1.000000
    5        0.137641      0.132710   1.000000   1.000000
    6        0.384127      0.382500   1.000000   1.000000
    7        0.406409      0.397637   1.000000   1.000000
    8        0.457741      0.450556   1.000000   1.000000
    9        1.582234      1.576880   1.000000   1.000000
   10        1.621429      1.609523   1.000000   1.000000
   11        1.655865      1.650083   1.000000   1.000000
   12        1.776832      1.771520   1.000000   1.000000
   13        1.924379      1.911846   1.000000   1.000000
   14        1.957632      1.948719   1.000000   1.000000
   15        2.231580      2.226272   1.000000   1.000000
   16        2.351210      2.309033   1.000000   1.000000
   17        2.682161      2.676492   1.000000   1.000000
   18        2.923591      2.926787   1.000000   1.000000
   19        3.031437      3.004602   1.000000   1.000000
   20        3.565880      3.524612   1.000000   1.000000
   21        3.722777      3.646585   1.000000   1.000000
   22        3.784607      3.777344   1.000000   1.000000
   23        3.812280      3.803302   1.000000   1.000000
   24        4.015255      4.011368   1.000000   1.000000
   25        4.042819      4.018423   1.000000   1.000000
   26        4.114087      4.091938   1.000000   1.000000
   27        4.152914      4.159179   1.000000   1.000000
   28        4.323471      4.274734   1.000000   1.000000
   29        4.366281      4.301705   1.000000   1.000000
   30        4.462424      4.399009   1.000000   1.000000
   31        4.537033      4.526560   1.000000   1.000000
   32        4.555600      4.641730   1.000000   1.000000
   33        4.705594      4.700279   1.000000   1.000000
   34        4.782273      4.750528   1.000000   1.000000
   35        4.875701      4.829982   1.000000   1.000000
   36        4.939480      4.891064   1.000000   1.000000
   37        4.999519      4.982092   1.000000   1.000000
   38        5.058076      5.024631   1.000000   1.000000
   39        5.099064      5.048321   1.000000   1.000000
   40        5.146826      5.090280   1.000000   1.000000
   41        5.166922      5.133422   1.000000   1.000000
   42        5.199722      5.172348   1.000000   1.000000
   43        5.306184      5.271218   1.000000   1.000000
   44        5.378303      5.283970   1.000000   1.000000
   45        5.398663      5.348348   1.000000   1.000000
   46        5.468338      5.380113   1.000000   1.000000
   47        5.562861      5.508610   1.000000   1.000000
   48        5.641605      5.546715   1.000000   1.000000
   49        5.647704      5.598771   1.000000   1.000000
   50        5.691178      5.670094   1.000000   1.000000
   51        5.719996      5.705864   1.000000   1.000000
   52        5.790620      5.749560   1.000000   1.000000
   53        5.813812      5.801752   1.000000   1.000000
   54        5.885557      5.856576   1.000000   1.000000
   55        5.940674      5.945425   1.000000   1.000000
   56        6.008901      5.986759   1.000000   1.000000
   57        6.108855      6.034798   1.000000   1.000000
   58        6.113580      6.112585   1.000000   1.000000
   59        6.145088      6.164098   1.000000   1.000000
   60        6.210566      6.169131   1.000000   1.000000
   61        6.270275      6.196821   1.000000   1.000000
   62        6.313039      6.248780   1.000000   1.000000
   63        6.316621      6.265763   1.000000   1.000000
   64        6.331658      6.294142   1.000000   1.000000
   65        6.411244      6.347153   1.000000   1.000000
   66        6.445515      6.368587   1.000000   1.000000
   67        6.491211      6.436766   1.000000   1.000000
   68        6.529197      6.487204   1.000000   1.000000
   69        6.548582      6.489776   1.000000   1.000000
   70        6.558570      6.505701   1.000000   1.000000
   71        6.640630      6.596459   1.000000   1.000000
   72        6.663127      6.618928   1.000000   1.000000
   73        6.712551      6.637634   1.000000   1.000000
   74        6.755873      6.663129   1.000000   1.000000
   75        6.790767      6.680377   1.000000   1.000000
   76        6.831015      6.708936   1.000000   1.000000
   77        6.842986      6.783596   1.000000   1.000000
   78        6.890722      6.786602   1.000000   1.000000
   79        6.940110      6.802930   1.000000   1.000000
   80        6.991205      6.878617   1.000001   1.000000
   81        7.077599      6.999115   1.000017   1.000001
   82        7.110907      7.004298   1.000046   1.000002
   83        7.216634      7.275881   1.000756   1.002738
   84        7.272960      7.326866   1.002575   1.006939
   85        7.426446      7.423318   1.025618   1.024912
   86        7.509575      7.589090   1.033829   0.969926
   87        7.605369      7.606555   0.941045   0.938755
   88        7.635748      7.648011   0.868895   0.833475
   89        7.733832      7.653157   0.506457   0.817109
   90        7.837799      7.824489   0.123192   0.159986
   91        7.934092      7.842993  -0.024526   0.109405
   92        7.983130      7.902875  -0.035426   0.000901
   93        7.994493      8.014747  -0.034746  -0.031877
   94        8.055999      8.040001  -0.022895  -0.026592
   95        8.079583      8.089247  -0.017614  -0.015611
   96        8.191150      8.108610  -0.002934  -0.012014
   97        8.238949      8.189190  -0.001066  -0.003052
   98        8.244828      8.255254  -0.000934  -0.000732
   99        8.309159      8.263153  -0.000190  -0.000609
  100        8.324546      8.291460  -0.000126  -0.000302
  101        8.394078      8.396700  -0.000016  -0.000015
  102        8.417096      8.397868  -0.000008  -0.000015
  103        8.460039      8.500592  -0.000002  -0.000000
  104        8.586839      8.527395  -0.000000  -0.000000
  105        8.655572      8.616855  -0.000000  -0.000000
  106        8.666804      8.634291  -0.000000  -0.000000
  107        8.760886      8.685027  -0.000000  -0.000000
  108        8.825728      8.744154  -0.000000  -0.000000
  109        8.959108      8.844269  -0.000000  -0.000000
  110        9.060317      9.006197  -0.000000  -0.000000
 
  0.0000000E+00  0.2000000E+00  0.0000000E+00  0.1333333E-01
    1       -2.427854     -2.432265   1.000000   1.000000
    2       -1.101818     -1.106175   1.000000   1.000000
    3       -0.260837     -0.265695   1.000000   1.000000
    4       -0.244085     -0.249174   1.000000   1.000000
    5       -0.058324     -0.061811   1.000000   1.000000
    6        0.568867      0.562744   1.000000   1.000000
    7        0.882574      0.876673   1.000000   1.000000
    8        0.928880      0.924506   1.000000   1.000000
    9        0.942906      0.937454   1.000000   1.000000
   10        1.457325      1.439876   1.000000   1.000000
   11        1.463234      1.447022   1.000000   1.000000
   12        1.496067      1.490801   1.000000   1.000000
   13        1.925915      1.915343   1.000000   1.000000
   14        2.316538      2.308131   1.000000   1.000000
   15        2.323086      2.310009   1.000000   1.000000
   16        2.331062      2.317576   1.000000   1.000000
   17        2.341374      2.320498   1.000000   1.000000
   18        2.837367      2.833475   1.000000   1.000000
   19        3.244314      3.219864   1.000000   1.000000
   20        3.262087      3.234293   1.000000   1.000000
   21        3.613460      3.604803   1.000000   1.000000
   22        3.631848      3.623571   1.000000   1.000000
   23        3.744678      3.732968   1.000000   1.000000
   24        4.099494      4.083940   1.000000   1.000000
   25        4.189504      4.148167   1.000000   1.000000
   26        4.252852      4.242001   1.000000   1.000000
   27        4.316237      4.310638   1.000000   1.000000
   28        4.393340      4.360899   1.000000   1.000000
   29        4.597329      4.529039   1.000000   1.000000
   30        4.607537      4.541515   1.000000   1.000000
   31        4.617214      4.603009   1.000000   1.000000
   32        4.657729      4.634292   1.000000   1.000000
   33        4.706441      4.679948   1.000000   1.000000
   34        4.772633      4.793695   1.000000   1.000000
   35        4.876741      4.828925   1.000000   1.000000
   36        4.877652      4.858960   1.000000   1.000000
   37        5.022033      4.975548   1.000000   1.000000
   38        5.040051      5.015122   1.000000   1.000000
   39        5.080476      5.066995   1.000000   1.000000
   40        5.099724      5.099552   1.000000   1.000000
   41        5.194866      5.124909   1.000000   1.000000
   42        5.267032      5.205818   1.000000   1.000000
   43        5.291070      5.212228   1.000000   1.000000
   44        5.405421      5.338506   1.000000   1.000000
   45        5.407204      5.354337   1.000000   1.000000
   46        5.508124      5.449712   1.000000   1.000000
   47        5.522973      5.477056   1.000000   1.000000
   48        5.562964      5.536423   1.000000   1.000000
   49        5.585646      5.553095   1.000000   1.000000
   50        5.693456      5.622052   1.000000   1.000000
   51        5.715083      5.631342   1.000000   1.000000
   52        5.794854      5.719548   1.000000   1.000000
   53        5.836466      5.733010   1.000000   1.000000
   54        5.840572      5.859436   1.000000   1.000000
   55        6.044302      5.862589   1.000000   1.000000
   56        6.112855      6.047596   1.000000   1.000000
   57        6.137000      6.075283   1.000000   1.000000
   58        6.171220      6.163215   1.000000   1.000000
   59        6.263958      6.177564   1.000000   1.000000
   60        6.293933      6.211712   1.000000   1.000000
   61        6.349257      6.239519   1.000000   1.000000
   62        6.370470      6.293667   1.000000   1.000000
   63        6.382345      6.328050   1.000000   1.000000
   64        6.387534      6.394609   1.000000   1.000000
   65        6.425804      6.421269   1.000000   1.000000
   66        6.460812      6.436263   1.000000   1.000000
   67        6.487822      6.494753   1.000000   1.000000
   68        6.516744      6.496385   1.000000   1.000000
   69        6.536239      6.537223   1.000000   1.000000
   70        6.590858      6.548634   1.000000   1.000000
   71        6.600369      6.559934   1.000000   1.000000
   72        6.653688      6.583962   1.000000   1.000000
   73        6.654932      6.622007   1.000000   1.000000
   74        6.702909      6.666345   1.000000   1.000000
   75        6.733508      6.706137   1.000000   1.000000
   76        6.750237      6.741382   1.000000   1.000000
   77        6.841461      6.752779   1.000000   1.000000
   78        6.869928      6.805763   1.000000   1.000000
   79        6.891244      6.852682   1.000000   1.000000
   80        6.936057      6.929766   1.000000   1.000000
   81        7.066055      7.054821   1.000012   1.000008
   82        7.099650      7.163307   1.000033   1.000200
   83        7.177081      7.301608   1.000286   1.004472
   84        7.328444      7.344425   1.007147   1.009235
   85        7.379767      7.394071   1.015288   1.018274
   86        7.389214      7.419676   1.017250   1.024066
   87        7.604467      7.504023   0.942872   1.034691
   88        7.701601      7.620134   0.640514   0.908393
   89        7.845621      7.637282   0.102916   0.864653
   90        7.915279      7.747593  -0.011381   0.446505
   91        7.920073      7.791897  -0.015280   0.270469
   92        8.011799      7.874398  -0.032381   0.041732
   93        8.019730      7.983999  -0.030912  -0.035406
   94        8.075227      8.031664  -0.018549  -0.028448
   95        8.119299      8.053469  -0.010258  -0.023479
   96        8.198971      8.081857  -0.002511  -0.017121
   97        8.223902      8.160999  -0.001487  -0.005165
   98        8.283063      8.166499  -0.000373  -0.004671
   99        8.304630      8.278525  -0.000214  -0.000418
  100        8.356791      8.359023  -0.000050  -0.000047
  101        8.461990      8.457793  -0.000002  -0.000002
  102        8.537543      8.511282  -0.000000  -0.000000
  103        8.567409      8.586698  -0.000000  -0.000000
  104        8.602936      8.625879  -0.000000  -0.000000
  105        8.691758      8.635505  -0.000000  -0.000000
  106        8.710551      8.768053  -0.000000  -0.000000
  107        8.764023      8.773863  -0.000000  -0.000000
  108        8.824145      8.879771  -0.000000  -0.000000
  109        8.924090      8.913793  -0.000000  -0.000000
  110        8.995789      8.964870  -0.000000  -0.000000
 
  0.2000000E+00  0.2000000E+00  0.0000000E+00  0.1333333E-01
    1       -2.337615     -2.342012   1.000000   1.000000
    2       -1.026983     -1.026388   1.000000   1.000000
    3       -1.004498     -1.014342   1.000000   1.000000
    4        0.007615      0.003723   1.000000   1.000000
    5        0.228591      0.223680   1.000000   1.000000
    6        0.637954      0.637971   1.000000   1.000000
    7        0.658701      0.647760   1.000000   1.000000
    8        0.940419      0.927933   1.000000   1.000000
    9        0.956291      0.952035   1.000000   1.000000
   10        1.589935      1.584411   1.000000   1.000000
   11        1.728458      1.718157   1.000000   1.000000
   12        1.772249      1.771166   1.000000   1.000000
   13        1.845408      1.832168   1.000000   1.000000
   14        1.987694      1.968314   1.000000   1.000000
   15        2.005548      1.986000   1.000000   1.000000
   16        2.804589      2.784067   1.000000   1.000000
   17        2.871070      2.839683   1.000000   1.000000
   18        2.872433      2.860769   1.000000   1.000000
   19        2.885834      2.887695   1.000000   1.000000
   20        2.951485      2.940115   1.000000   1.000000
   21        3.660503      3.622797   1.000000   1.000000
   22        3.792938      3.776230   1.000000   1.000000
   23        3.795356      3.792119   1.000000   1.000000
   24        3.863413      3.856335   1.000000   1.000000
   25        4.173577      4.142634   1.000000   1.000000
   26        4.249065      4.235118   1.000000   1.000000
   27        4.346417      4.318330   1.000000   1.000000
   28        4.373822      4.355777   1.000000   1.000000
   29        4.447966      4.384810   1.000000   1.000000
   30        4.486383      4.425566   1.000000   1.000000
   31        4.505052      4.500580   1.000000   1.000000
   32        4.626025      4.590550   1.000000   1.000000
   33        4.658672      4.673438   1.000000   1.000000
   34        4.783792      4.714588   1.000000   1.000000
   35        4.861154      4.846225   1.000000   1.000000
   36        4.876989      4.875269   1.000000   1.000000
   37        4.936300      4.886264   1.000000   1.000000
   38        4.967503      4.964988   1.000000   1.000000
   39        5.124633      5.090136   1.000000   1.000000
   40        5.137310      5.118586   1.000000   1.000000
   41        5.282545      5.219266   1.000000   1.000000
   42        5.290387      5.221996   1.000000   1.000000
   43        5.324050      5.266273   1.000000   1.000000
   44        5.441098      5.371179   1.000000   1.000000
   45        5.491539      5.398469   1.000000   1.000000
   46        5.491646      5.422331   1.000000   1.000000
   47        5.507915      5.443016   1.000000   1.000000
   48        5.587518      5.570043   1.000000   1.000000
   49        5.653844      5.578734   1.000000   1.000000
   50        5.698805      5.645865   1.000000   1.000000
   51        5.721320      5.690313   1.000000   1.000000
   52        5.773181      5.761908   1.000000   1.000000
   53        5.817790      5.826047   1.000000   1.000000
   54        5.856441      5.849514   1.000000   1.000000
   55        6.044003      5.905273   1.000000   1.000000
   56        6.044219      6.015760   1.000000   1.000000
   57        6.117593      6.034083   1.000000   1.000000
   58        6.158885      6.121535   1.000000   1.000000
   59        6.238447      6.153870   1.000000   1.000000
   60        6.294862      6.201251   1.000000   1.000000
   61        6.305195      6.235227   1.000000   1.000000
   62        6.334100      6.256939   1.000000   1.000000
   63        6.337402      6.322810   1.000000   1.000000
   64        6.362270      6.360936   1.000000   1.000000
   65        6.440542      6.383819   1.000000   1.000000
   66        6.454240      6.404102   1.000000   1.000000
   67        6.493671      6.477362   1.000000   1.000000
   68        6.550388      6.489974   1.000000   1.000000