       N       E                     dE             d eps       ncg     rms          ort
DAV:   1     0.135287462977E+04    0.13529E+04   -0.58479E+04  5720   0.144E+03
DAV:   2    -0.557593956570E+02   -0.14086E+04   -0.13792E+04  5720   0.446E+02
DAV:   3    -0.236782741302E+03   -0.18102E+03   -0.16371E+03  5720   0.172E+02
DAV:   4    -0.266362079635E+03   -0.29579E+02   -0.26671E+02  5720   0.753E+01
DAV:   5    -0.269578584034E+03   -0.32165E+01   -0.30775E+01  5720   0.221E+01
DAV:   6    -0.269857874512E+03   -0.27929E+00   -0.27185E+00  5720   0.583E+00
DAV:   7    -0.269890939885E+03   -0.33065E-01   -0.32543E-01  5720   0.176E+00
DAV:   8    -0.269894309535E+03   -0.33696E-02   -0.33299E-02  5720   0.475E-01
SDA:   9    -0.636421048124E+02    0.20625E+03   -0.33299E-02  5720   0.231E+04 0.000E+00
CGA:  10    -0.207912772722E+03   -0.14427E+03   -0.14353E+03  5720   0.137E+03 0.406E+03
CGA:  11    -0.218374491210E+03   -0.10462E+02   -0.10411E+02  5720   0.538E+02 0.285E+01
CGA:  12    -0.226927100320E+03   -0.85526E+01   -0.85378E+01  5720   0.101E+03-0.176E+00
CGA:  13    -0.233346055007E+03   -0.64190E+01   -0.64298E+01  5720   0.167E+02 0.835E+00
CGA:  14    -0.234458510351E+03   -0.11125E+01   -0.11304E+01  5720   0.609E+01-0.150E+00
CGA:  15    -0.235054025535E+03   -0.59552E+00   -0.59748E+00  5720   0.673E+01-0.238E-02
CGA:  16    -0.235828103544E+03   -0.77408E+00   -0.77441E+00  5720   0.221E+01 0.557E-02
CGA:  17    -0.236030104830E+03   -0.20200E+00   -0.20215E+00  5720   0.132E+01 0.781E-03
CGA:  18    -0.236193125328E+03   -0.16302E+00   -0.16337E+00  5720   0.153E+01 0.822E-03
CGA:  19    -0.236340505047E+03   -0.14738E+00   -0.14788E+00  5720   0.676E+00-0.248E-02
CGA:  20    -0.236388153347E+03   -0.47648E-01   -0.47962E-01  5720   0.375E+00-0.320E-02
CGA:  21    -0.236444612783E+03   -0.56459E-01   -0.56462E-01  5720   0.453E+00 0.289E-03
CGA:  22    -0.236505412076E+03   -0.60799E-01   -0.60816E-01  5720   0.227E+00-0.404E-04
CGA:  23    -0.236524388031E+03   -0.18976E-01   -0.18943E-01  5720   0.146E+00-0.896E-04
CGA:  24    -0.236540179262E+03   -0.15791E-01   -0.15789E-01  5720   0.148E+00-0.250E-03
CGA:  25    -0.236559686354E+03   -0.19507E-01   -0.19506E-01  5720   0.108E+00-0.289E-03
CGA:  26    -0.236572478294E+03   -0.12792E-01   -0.12787E-01  5720   0.968E-01-0.238E-03
CGA:  27    -0.236585557843E+03   -0.13080E-01   -0.13077E-01  5720   0.828E-01-0.181E-03
CGA:  28    -0.236593095243E+03   -0.75374E-02   -0.75310E-02  5720   0.495E-01 0.216E-04
CGA:  29    -0.236597342893E+03   -0.42476E-02   -0.42424E-02  5720   0.282E-01 0.841E-04
CGA:  30    -0.236602401440E+03   -0.50585E-02   -0.50572E-02  5720   0.273E-01 0.674E-04
CGA:  31    -0.236605507920E+03   -0.31065E-02   -0.31072E-02  5720   0.240E-01 0.563E-04
CGA:  32    -0.236607930876E+03   -0.24230E-02   -0.24244E-02  5720   0.195E-01 0.501E-04
CGA:  33    -0.236610481692E+03   -0.25508E-02   -0.25511E-02  5720   0.163E-01 0.724E-04
CGA:  34    -0.236612136314E+03   -0.16546E-02   -0.16566E-02  5720   0.841E-02 0.883E-04
CGA:  35    -0.236613222204E+03   -0.10859E-02   -0.10863E-02  5720   0.755E-02 0.684E-04
CGA:  36    -0.236613976830E+03   -0.75463E-03   -0.75619E-03  5720   0.559E-02 0.448E-04
CGA:  37    -0.236614572301E+03   -0.59547E-03   -0.59621E-03  5720   0.397E-02 0.272E-04
CGA:  38    -0.236615188658E+03   -0.61636E-03   -0.61575E-03  5720   0.475E-02 0.266E-04
CGA:  39    -0.236615747942E+03   -0.55928E-03   -0.55981E-03  5720   0.283E-02 0.295E-04
SDA:  40    -0.236615991610E+03   -0.24367E-03   -0.24434E-03  5720   0.150E-02 0.160E-04
CGA:  41    -0.236616097863E+03   -0.10625E-03   -0.10611E-03  5720   0.143E-02-0.215E-05
CGA:  42    -0.236616368753E+03   -0.27089E-03   -0.27177E-03  5720   0.937E-03-0.140E-04
CGA:  43    -0.236616453963E+03   -0.85210E-04   -0.84931E-04  5720   0.739E-03-0.743E-05
CGA:  44    -0.236616613640E+03   -0.15968E-03   -0.16140E-03  5720   0.608E-03-0.189E-04
CGA:  45    -0.236616677066E+03   -0.63426E-04   -0.63312E-04  5720   0.494E-03-0.449E-05
CGA:  46    -0.236616771268E+03   -0.94202E-04   -0.94402E-04  5720   0.576E-03-0.339E-05
CGA:  47    -0.236616816058E+03   -0.44790E-04   -0.44624E-04  5720   0.398E-03-0.291E-05
CGA:  48    -0.236616870958E+03   -0.54901E-04   -0.54936E-04  5720   0.422E-03-0.468E-05
CGA:  49    -0.236616916333E+03   -0.45375E-04   -0.45334E-04  5720   0.261E-03-0.155E-05
CGA:  50    -0.236616960519E+03   -0.44186E-04   -0.44021E-04  5720   0.239E-03 0.470E-05
CGA:  51    -0.236616980157E+03   -0.19638E-04   -0.19805E-04  5720   0.924E-04 0.349E-05
CGA:  52    -0.236617001051E+03   -0.20895E-04   -0.20722E-04  5720   0.124E-03 0.195E-05
CGA:  53    -0.236617013588E+03   -0.12537E-04   -0.12582E-04  5720   0.687E-04 0.142E-05
CGA:  54    -0.236617023058E+03   -0.94697E-05   -0.94653E-05  5720   0.121E-03 0.128E-05
CGA:  55    -0.236617036069E+03   -0.13011E-04   -0.13059E-04  5720   0.392E-04 0.192E-05
CGA:  56    -0.236617039297E+03   -0.32285E-05   -0.32409E-05  5720   0.254E-04 0.232E-06
CGA:  57    -0.236617046541E+03   -0.72438E-05   -0.72728E-05  5720   0.238E-04-0.190E-06
CGA:  58    -0.236617048943E+03   -0.24017E-05   -0.23917E-05  5720   0.155E-04-0.295E-06
CGA:  59    -0.236617053954E+03   -0.50117E-05   -0.51884E-05  5720   0.300E-04-0.897E-06
CGA:  60    -0.236617056002E+03   -0.20475E-05   -0.20619E-05  5720   0.937E-05 0.170E-06
CGA:  61    -0.236617057441E+03   -0.14395E-05   -0.14307E-05  5720   0.862E-05 0.829E-06
CGA:  62    -0.236617058402E+03   -0.96066E-06   -0.97337E-06  5720   0.827E-05 0.345E-06
CGA:  63    -0.236617059508E+03   -0.11057E-05   -0.11046E-05  5720   0.722E-05-0.534E-07
CGA:  64    -0.236617060070E+03   -0.56207E-06   -0.55627E-06  5720   0.328E-05-0.105E-06
CGA:  65    -0.236617060609E+03   -0.53941E-06   -0.53713E-06  5720   0.476E-05 0.597E-07
CGA:  66    -0.236617061151E+03   -0.54151E-06   -0.54879E-06  5720   0.107E-05 0.286E-06
CGA:  67    -0.236617061305E+03   -0.15437E-06   -0.15429E-06  5720   0.151E-05 0.146E-06
CGA:  68    -0.236617061513E+03   -0.20803E-06   -0.21060E-06  5720   0.699E-06 0.186E-06
CGA:  69    -0.236617061640E+03   -0.12674E-06   -0.12634E-06  5720   0.784E-06 0.531E-07
CGA:  70    -0.236617061757E+03   -0.11695E-06   -0.11638E-06  5720   0.424E-06 0.144E-06
SDA:  71    -0.236617061795E+03   -0.38681E-07   -0.47298E-07  5720   0.327E-06 0.186E-06
   1 F= -.23661706E+03 E0= -.23662172E+03  d E =0.139706E-01  mag=    -0.9510
