 vasp.5.4.4.18Apr17-6-g9f103f2a35 (build Dec 20 2018 12:05:58) complex          
  
 executed on             LinuxIFC date 2019.06.20  15:16:20
 running on   32 total cores
 distrk:  each k-point on    8 cores,    4 groups
 distr:  one band on NCORES_PER_BAND=   4 cores,    2 groups


--------------------------------------------------------------------------------------------------------


 INCAR:
 POTCAR:    PAW_PBE Al 04Jan2001                  
 POTCAR:    PAW_PBE Mn 06Sep2000                  

 ----------------------------------------------------------------------------- 
|                                                                             |
|           W    W    AA    RRRRR   N    N  II  N    N   GGGG   !!!           |
|           W    W   A  A   R    R  NN   N  II  NN   N  G    G  !!!           |
|           W    W  A    A  R    R  N N  N  II  N N  N  G       !!!           |
|           W WW W  AAAAAA  RRRRR   N  N N  II  N  N N  G  GGG   !            |
|           WW  WW  A    A  R   R   N   NN  II  N   NN  G    G                |
|           W    W  A    A  R    R  N    N  II  N    N   GGGG   !!!           |
|                                                                             |
|      You have enabled k-point parallelism (KPAR>1).                         |
|      This developmental code was originally  written by Paul Kent at ORNL,  |
|      and carefully double checked in Vienna.                                |
|      GW as well as linear response parallelism added by Martijn Marsman     |
|      and Georg Kresse.                                                      |
|      Carefully verify results versus KPAR=1.                                |
|      Report problems to Paul Kent and Vienna.                               |
|                                                                             |
 ----------------------------------------------------------------------------- 

 POTCAR:    PAW_PBE Al 04Jan2001                  
   VRHFIN =Al: s2p1                                                             
   LEXCH  = PE                                                                  
   EATOM  =    53.5387 eV,    3.9350 Ry                                         
                                                                                
   TITEL  = PAW_PBE Al 04Jan2001                                                
   LULTRA =        F    use ultrasoft PP ?                                      
   IUNSCR =        1    unscreen: 0-lin 1-nonlin 2-no                           
   RPACOR =    1.500    partial core radius                                     
   POMASS =   26.981; ZVAL   =    3.000    mass and valenz                      
   RCORE  =    1.900    outmost cutoff radius                                   
   RWIGS  =    2.650; RWIGS  =    1.402    wigner-seitz radius (au A)           
   ENMAX  =  240.300; ENMIN  =  180.225 eV                                      
   ICORE  =        2    local potential                                         
   LCOR   =        T    correct aug charges                                     
   LPAW   =        T    paw PP                                                  
   EAUG   =  291.052                                                            
   DEXC   =    0.000                                                            
   RMAX   =    1.939    core radius for proj-oper                               
   RAUG   =    1.300    factor for augmentation sphere                          
   RDEP   =    1.966    radius for radial grids                                 
   RDEPT  =    1.856    core radius for aug-charge                              
                                                                                
   Atomic configuration                                                         
    6 entries                                                                   
     n  l   j            E        occ.                                          
     1  0  0.50     -1511.1048   2.0000                                         
     2  0  0.50      -108.1629   2.0000                                         
     2  1  1.50       -69.6402   6.0000                                         
     3  0  0.50        -7.7528   2.0000                                         
     3  1  1.50        -2.7121   1.0000                                         
     3  2  2.50        -2.7212   0.0000                                         
   Description                                                                  
     l       E           TYP  RCUT    TYP  RCUT                                 
     0     -7.7528455     23  1.900                                             
     0     -3.3096929     23  1.900                                             
     1     -2.7120682     23  1.900                                             
     1     13.6058260     23  1.900                                             
     2     -2.7211652      7  1.900                                             
  local pseudopotential read in
  partial core-charges read in
  partial kinetic energy density read in
  atomic valenz-charges read in
  non local Contribution for L=           0  read in
    real space projection operators read in
  non local Contribution for L=           0  read in
    real space projection operators read in
  non local Contribution for L=           1  read in
    real space projection operators read in
  non local Contribution for L=           1  read in
    real space projection operators read in
    PAW grid and wavefunctions read in
 
   number of l-projection  operators is LMAX  =           4
   number of lm-projection operators is LMMAX =           8
 
 POTCAR:    PAW_PBE Mn 06Sep2000                  
   VRHFIN =Mn: d6 s1                                                            
   LEXCH  = PE                                                                  
   EATOM  =   416.7541 eV,   30.6306 Ry                                         
                                                                                
   TITEL  = PAW_PBE Mn 06Sep2000                                                
   LULTRA =        F    use ultrasoft PP ?                                      
   IUNSCR =        1    unscreen: 0-lin 1-nonlin 2-no                           
   RPACOR =    2.000    partial core radius                                     
   POMASS =   54.938; ZVAL   =    7.000    mass and valenz                      
   RCORE  =    2.300    outmost cutoff radius                                   
   RWIGS  =    2.500; RWIGS  =    1.323    wigner-seitz radius (au A)           
   ENMAX  =  269.864; ENMIN  =  202.398 eV                                      
   RCLOC  =    1.725    cutoff for local pot                                    
   LCOR   =        T    correct aug charges                                     
   LPAW   =        T    paw PP                                                  
   EAUG   =  500.711                                                            
   DEXC   =    0.000                                                            
   RMAX   =    2.343    core radius for proj-oper                               
   RAUG   =    1.300    factor for augmentation sphere                          
   RDEP   =    2.338    radius for radial grids                                 
   RDEPT  =    1.911    core radius for aug-charge                              
                                                                                
   Atomic configuration                                                         
    9 entries                                                                   
     n  l   j            E        occ.                                          
     1  0  0.50     -6424.8288   2.0000                                         
     2  0  0.50      -739.1154   2.0000                                         
     2  1  1.50      -625.3949   6.0000                                         
     3  0  0.50       -81.6100   2.0000                                         
     3  1  1.50       -50.4667   6.0000                                         
     3  2  2.50        -3.3745   6.0000                                         
     4  0  0.50        -4.1331   1.0000                                         
     4  1  0.50        -4.0817   0.0000                                         
     4  3  2.50        -1.3606   0.0000                                         
   Description                                                                  
     l       E           TYP  RCUT    TYP  RCUT                                 
     2     -3.3744664     23  2.300                                             
     2     -4.7350490     23  2.300                                             
     0     -4.1331408     23  2.300                                             
     0      7.6656614     23  2.300                                             
     1     -2.7211652     23  2.300                                             
     1     20.4087390     23  2.300                                             
  local pseudopotential read in
  partial core-charges read in
  partial kinetic energy density read in
  atomic valenz-charges read in
  non local Contribution for L=           2  read in
    real space projection operators read in
  non local Contribution for L=           2  read in
    real space projection operators read in
  non local Contribution for L=           0  read in
    real space projection operators read in
  non local Contribution for L=           0  read in
    real space projection operators read in
  non local Contribution for L=           1  read in
    real space projection operators read in
  non local Contribution for L=           1  read in
    real space projection operators read in
    PAW grid and wavefunctions read in
 
   number of l-projection  operators is LMAX  =           6
   number of lm-projection operators is LMMAX =          18
 

 ----------------------------------------------------------------------------- 
|                                                                             |
|  ADVICE TO THIS USER RUNNING 'VASP/VAMP'   (HEAR YOUR MASTER'S VOICE ...):  |
|                                                                             |
|      You have a (more or less) 'large supercell' and for larger cells       |
|      it might be more efficient to use real space projection opertators     |
|      So try LREAL= Auto  in the INCAR   file.                               |
|      Mind:          For very  accurate calculation you might also keep the  |
|      reciprocal projection scheme          (i.e. LREAL=.FALSE.)             |
|                                                                             |
 ----------------------------------------------------------------------------- 

  PAW_PBE Al 04Jan2001                  :
 energy of atom  1       EATOM=  -53.5387
 kinetic energy error for atom=    0.0005 (will be added to EATOM!!)
  PAW_PBE Mn 06Sep2000                  :
 energy of atom  2       EATOM= -416.7541
 kinetic energy error for atom=    0.0080 (will be added to EATOM!!)
 
 
 POSCAR: NewRef: 18, @ ['Mn', array([1.37502469, 
  positions in cartesian coordinates
  velocities in cartesian coordinates
  No initial velocities read in
 exchange correlation table for  LEXCH =        8
   RHO(1)=    0.500       N(1)  =     2000
   RHO(2)=  100.500       N(2)  =     4000
 


--------------------------------------------------------------------------------------------------------


 ion  position               nearest neighbor table
   1  0.000  0.000  0.000-  20 2.61  24 2.61  32 2.61  36 2.61  31 2.61  23 2.61  35 2.61  19 2.61
                             3 2.75   7 2.75   5 2.75  13 2.75
   2  0.000  0.000  0.500-  19 2.61  23 2.61  31 2.61  35 2.61  20 2.61  32 2.61  24 2.61  36 2.61
                             4 2.75   8 2.75   6 2.75  14 2.75
   3  0.000  0.333  0.000-  20 2.61  32 2.61  22 2.61  34 2.61  19 2.61  31 2.61  33 2.61  21 2.61
                             9 2.75   1 2.75   5 2.75  15 2.75
   4  0.000  0.333  0.500-  19 2.61  31 2.61  21 2.61  33 2.61  32 2.61  20 2.61  22 2.61  34 2.61
                            10 2.75   2 2.75   6 2.75  16 2.75
   5  0.000  0.667  0.000-  22 2.61  34 2.61  24 2.61  36 2.61  21 2.61  33 2.61  35 2.61  23 2.61
                             3 2.75  11 2.75   1 2.75  17 2.75
   6  0.000  0.667  0.500-  21 2.61  33 2.61  23 2.61  35 2.61  34 2.61  22 2.61  24 2.61  36 2.61
                             4 2.75  12 2.75   2 2.75  18 2.75
   7  0.333  0.000  0.000-  20 2.61  24 2.61  26 2.61  30 2.61  23 2.61  19 2.61  29 2.61  25 2.61
                            13 2.75   1 2.75   9 2.75  11 2.75
   8  0.333  0.000  0.500-  19 2.61  23 2.61  25 2.61  29 2.61  20 2.61  24 2.61  26 2.61  30 2.61
                            14 2.75   2 2.75  10 2.75  12 2.75
   9  0.333  0.333  0.000-  20 2.61  22 2.61  26 2.61  19 2.61  28 2.61  21 2.61  25 2.61  27 2.61
                             3 2.75   7 2.75  11 2.75  15 2.75
  10  0.333  0.333  0.500-  19 2.61  21 2.61  25 2.61  20 2.61  27 2.61  26 2.61  22 2.61  28 2.61
                             4 2.75   8 2.75  12 2.75  16 2.75
  11  0.333  0.667  0.000-  22 2.61  24 2.61  28 2.61  21 2.61  30 2.61  23 2.61  27 2.61  29 2.61
                            17 2.75   5 2.75   9 2.75   7 2.75
  12  0.333  0.667  0.500-  21 2.61  23 2.61  27 2.61  22 2.61  29 2.61  28 2.61  24 2.61  30 2.61
                            18 2.75   6 2.75  10 2.75   8 2.75
  13  0.667  0.000  0.000-  26 2.61  30 2.61  32 2.61  36 2.61  29 2.61  25 2.61  35 2.61  31 2.61
                             7 2.75  15 2.75   1 2.75  17 2.75
  14  0.667  0.000  0.500-  25 2.61  29 2.61  31 2.61  35 2.61  26 2.61  30 2.61  32 2.61  36 2.61
                             8 2.75  16 2.75   2 2.75  18 2.75
  15  0.667  0.333  0.000-  26 2.61  28 2.61  32 2.61  25 2.61  34 2.61  27 2.61  31 2.61  33 2.61
                            17 2.75   9 2.75  13 2.75   3 2.75
  16  0.667  0.333  0.500-  25 2.61  27 2.61  31 2.61  26 2.61  33 2.61  32 2.61  28 2.61  34 2.61
                            18 2.75  10 2.75  14 2.75   4 2.75
  17  0.667  0.667  0.000-  28 2.61  30 2.61  34 2.61  27 2.61  36 2.61  29 2.61  33 2.61  35 2.61
                            11 2.75  15 2.75  13 2.75   5 2.75
  18  0.667  0.667  0.500-  27 2.61  29 2.61  33 2.61  28 2.61  35 2.61  34 2.61  30 2.61  36 2.61
                            12 2.75  16 2.75  14 2.75   6 2.75
  19  0.167  0.167  0.250-  10 2.61   8 2.61   4 2.61   9 2.61   2 2.61   7 2.61   3 2.61   1 2.61
                            21 2.75  25 2.75  23 2.75  31 2.75
  20  0.167  0.167  0.750-   9 2.61   7 2.61   3 2.61  10 2.61   1 2.61   4 2.61   8 2.61   2 2.61
                            22 2.75  26 2.75  24 2.75  32 2.75
  21  0.167  0.500  0.250-  12 2.61  10 2.61   6 2.61  11 2.61   4 2.61   9 2.61   5 2.61   3 2.61
                            19 2.75  23 2.75  27 2.75  33 2.75
  22  0.167  0.500  0.750-  11 2.61   9 2.61   5 2.61  12 2.61   3 2.61   6 2.61  10 2.61   4 2.61
                            20 2.75  24 2.75  28 2.75  34 2.75
  23  0.167  0.833  0.250-   8 2.61  12 2.61   2 2.61   6 2.61  11 2.61   7 2.61   5 2.61   1 2.61
                            21 2.75  29 2.75  19 2.75  35 2.75
  24  0.167  0.833  0.750-   7 2.61  11 2.61   1 2.61   5 2.61   8 2.61  12 2.61   2 2.61   6 2.61
                            22 2.75  30 2.75  20 2.75  36 2.75
  25  0.500  0.167  0.250-  16 2.61  14 2.61  10 2.61  15 2.61   8 2.61  13 2.61   9 2.61   7 2.61
                            19 2.75  27 2.75  31 2.75  29 2.75
  26  0.500  0.167  0.750-  15 2.61  13 2.61   9 2.61  16 2.61   7 2.61  10 2.61  14 2.61   8 2.61
                            20 2.75  28 2.75  32 2.75  30 2.75
  27  0.500  0.500  0.250-  18 2.61  16 2.61  12 2.61  17 2.61  10 2.61  15 2.61  11 2.61   9 2.61
                            21 2.75  25 2.75  29 2.75  33 2.75
  28  0.500  0.500  0.750-  17 2.61  15 2.61  11 2.61  18 2.61   9 2.61  12 2.61  16 2.61  10 2.61
                            22 2.75  26 2.75  30 2.75  34 2.75
  29  0.500  0.833  0.250-  14 2.61  18 2.61   8 2.61  12 2.61  17 2.61  13 2.61  11 2.61   7 2.61
                            23 2.75  27 2.75  35 2.75  25 2.75
  30  0.500  0.833  0.750-  13 2.61  17 2.61   7 2.61  11 2.61  14 2.61  18 2.61   8 2.61  12 2.61
                            24 2.75  28 2.75  36 2.75  26 2.75
  31  0.833  0.167  0.250-   4 2.61  16 2.61  14 2.61   2 2.61  15 2.61   3 2.61  13 2.61   1 2.61
                            25 2.75  33 2.75  19 2.75  35 2.75
  32  0.833  0.167  0.750-   3 2.61  15 2.61  13 2.61   1 2.61   4 2.61  16 2.61   2 2.61  14 2.61
                            26 2.75  34 2.75  20 2.75  36 2.75
  33  0.833  0.500  0.250-   6 2.61  18 2.61  16 2.61   4 2.61  17 2.61   5 2.61  15 2.61   3 2.61
                            27 2.75  31 2.75  35 2.75  21 2.75
  34  0.833  0.500  0.750-   5 2.61  17 2.61  15 2.61   3 2.61   6 2.61  18 2.61   4 2.61  16 2.61
                            28 2.75  32 2.75  36 2.75  22 2.75
  35  0.833  0.833  0.250-   2 2.61   6 2.61  14 2.61  18 2.61  13 2.61   5 2.61  17 2.61   1 2.61
                            29 2.75  33 2.75  31 2.75  23 2.75
  36  0.833  0.833  0.750-   1 2.61   5 2.61  13 2.61  17 2.61   2 2.61  14 2.61   6 2.61  18 2.61
                            30 2.75  34 2.75  32 2.75  24 2.75
 
  LATTYP: Found a simple tetragonal cell.
 ALAT       =     8.2501481662
 C/A-ratio  =     0.8428059861
  
  Lattice vectors:
  
 A1 = (   8.2501481662,   0.0000000000,   0.0000000000)
 A2 = (   0.0000000000,   8.2501481662,   0.0000000000)
 A3 = (   0.0000000000,   0.0000000000,   6.9532742610)


Analysis of symmetry for initial positions (statically):
=====================================================================
 Subroutine PRICEL returns following result:
 
  LATTYP: Found a simple tetragonal cell.
 ALAT       =     2.7500493888
 C/A-ratio  =     1.2642089792
  
  Lattice vectors:
  
 A1 = (   2.7500493888,   0.0000000000,   0.0000000000)
 A2 = (   0.0000000000,   2.7500493888,   0.0000000000)
 A3 = (   0.0000000000,   0.0000000000,   3.4766371305)
 
  18 primitive cells build up your supercell.
 

 Routine SETGRP: Setting up the symmetry group for a 
 simple tetragonal supercell.


 Subroutine GETGRP returns: Found 16 space group operations
 (whereof 16 operations were pure point group operations)
 out of a pool of 16 trial point group operations.


The static configuration has the point symmetry D_4h.


Analysis of symmetry for dynamics (positions and initial velocities):
=====================================================================
 Subroutine PRICEL returns following result:
 
  LATTYP: Found a simple tetragonal cell.
 ALAT       =     2.7500493888
 C/A-ratio  =     1.2642089792
  
  Lattice vectors:
  
 A1 = (   2.7500493888,   0.0000000000,   0.0000000000)
 A2 = (   0.0000000000,   2.7500493888,   0.0000000000)
 A3 = (   0.0000000000,   0.0000000000,   3.4766371305)
 
  18 primitive cells build up your supercell.
 

 Routine SETGRP: Setting up the symmetry group for a 
 simple tetragonal supercell.


 Subroutine GETGRP returns: Found 16 space group operations
 (whereof 16 operations were pure point group operations)
 out of a pool of 16 trial point group operations.


The dynamic configuration has the point symmetry D_4h.


Analysis of structural, dynamic, and magnetic symmetry:
=====================================================================
 Subroutine PRICEL returns:
 Original cell was already a primitive cell.
 

 Routine SETGRP: Setting up the symmetry group for a 
 simple tetragonal supercell.


 Subroutine GETGRP returns: Found  2 space group operations
 (whereof  1 operations were pure point group operations)
 out of a pool of 16 trial point group operations.


The magnetic configuration has the point symmetry C_1 .
 The point group associated with its full space group is C_1h.


 Subroutine INISYM returns: Found  2 space group operations
 (whereof  1 operations are pure point group operations),
 and found     1 'primitive' translations

 
 
 KPOINTS: automatic KPOINTS                       

Automatic generation of k-mesh.
 generate k-points for:    5    5    6
Space group operators:
 irot       det(A)        alpha          n_x          n_y          n_z        tau_x        tau_y        tau_z
    1     1.000000     0.000001     1.000000     0.000000     0.000000     0.000000     0.000000     0.000000
    2    -1.000000   179.999999     0.000000     0.000000     1.000000     0.000000     0.000000     0.500000
 
 Subroutine IBZKPT returns following result:
 ===========================================
 
 Found     52 irreducible k-points:
 
 Following reciprocal coordinates:
            Coordinates               Weight
  0.000000  0.000000  0.000000      1.000000
  0.200000  0.000000  0.000000      2.000000
  0.400000  0.000000  0.000000      2.000000
  0.000000  0.200000  0.000000      2.000000
  0.200000  0.200000  0.000000      2.000000
  0.400000  0.200000  0.000000      2.000000
 -0.400000  0.200000  0.000000      2.000000
 -0.200000  0.200000  0.000000      2.000000
  0.000000  0.400000  0.000000      2.000000
  0.200000  0.400000  0.000000      2.000000
  0.400000  0.400000  0.000000      2.000000
 -0.400000  0.400000  0.000000      2.000000
 -0.200000  0.400000  0.000000      2.000000
  0.000000  0.000000  0.166667      2.000000
  0.200000  0.000000  0.166667      4.000000
  0.400000  0.000000  0.166667      4.000000
  0.000000  0.200000  0.166667      4.000000
  0.200000  0.200000  0.166667      4.000000
  0.400000  0.200000  0.166667      4.000000
 -0.400000  0.200000  0.166667      4.000000
 -0.200000  0.200000  0.166667      4.000000
  0.000000  0.400000  0.166667      4.000000
  0.200000  0.400000  0.166667      4.000000
  0.400000  0.400000  0.166667      4.000000
 -0.400000  0.400000  0.166667      4.000000
 -0.200000  0.400000  0.166667      4.000000
  0.000000  0.000000  0.333333      2.000000
  0.200000  0.000000  0.333333      4.000000
  0.400000  0.000000  0.333333      4.000000
  0.000000  0.200000  0.333333      4.000000
  0.200000  0.200000  0.333333      4.000000
  0.400000  0.200000  0.333333      4.000000
 -0.400000  0.200000  0.333333      4.000000
 -0.200000  0.200000  0.333333      4.000000
  0.000000  0.400000  0.333333      4.000000
  0.200000  0.400000  0.333333      4.000000
  0.400000  0.400000  0.333333      4.000000
 -0.400000  0.400000  0.333333      4.000000
 -0.200000  0.400000  0.333333      4.000000
  0.000000  0.000000  0.500000      1.000000
  0.200000  0.000000  0.500000      2.000000
  0.400000  0.000000  0.500000      2.000000
  0.000000  0.200000  0.500000      2.000000
  0.200000  0.200000  0.500000      2.000000
  0.400000  0.200000  0.500000      2.000000
 -0.400000  0.200000  0.500000      2.000000
 -0.200000  0.200000  0.500000      2.000000
  0.000000  0.400000  0.500000      2.000000
  0.200000  0.400000  0.500000      2.000000
  0.400000  0.400000  0.500000      2.000000
 -0.400000  0.400000  0.500000      2.000000
 -0.200000  0.400000  0.500000      2.000000
 
 Following cartesian coordinates:
            Coordinates               Weight
  0.000000  0.000000  0.000000      1.000000
  0.024242  0.000000  0.000000      2.000000
  0.048484  0.000000  0.000000      2.000000
  0.000000  0.024242  0.000000      2.000000
  0.024242  0.024242  0.000000      2.000000
  0.048484  0.024242  0.000000      2.000000
 -0.048484  0.024242  0.000000      2.000000
 -0.024242  0.024242  0.000000      2.000000
  0.000000  0.048484  0.000000      2.000000
  0.024242  0.048484  0.000000      2.000000
  0.048484  0.048484  0.000000      2.000000
 -0.048484  0.048484  0.000000      2.000000
 -0.024242  0.048484  0.000000      2.000000
  0.000000  0.000000  0.023970      2.000000
  0.024242  0.000000  0.023970      4.000000
  0.048484  0.000000  0.023970      4.000000
  0.000000  0.024242  0.023970      4.000000
  0.024242  0.024242  0.023970      4.000000
  0.048484  0.024242  0.023970      4.000000
 -0.048484  0.024242  0.023970      4.000000
 -0.024242  0.024242  0.023970      4.000000
  0.000000  0.048484  0.023970      4.000000
  0.024242  0.048484  0.023970      4.000000
  0.048484  0.048484  0.023970      4.000000
 -0.048484  0.048484  0.023970      4.000000
 -0.024242  0.048484  0.023970      4.000000
  0.000000  0.000000  0.047939      2.000000
  0.024242  0.000000  0.047939      4.000000
  0.048484  0.000000  0.047939      4.000000
  0.000000  0.024242  0.047939      4.000000
  0.024242  0.024242  0.047939      4.000000
  0.048484  0.024242  0.047939      4.000000
 -0.048484  0.024242  0.047939      4.000000
 -0.024242  0.024242  0.047939      4.000000
  0.000000  0.048484  0.047939      4.000000
  0.024242  0.048484  0.047939      4.000000
  0.048484  0.048484  0.047939      4.000000
 -0.048484  0.048484  0.047939      4.000000
 -0.024242  0.048484  0.047939      4.000000
  0.000000  0.000000  0.071909      1.000000
  0.024242  0.000000  0.071909      2.000000
  0.048484  0.000000  0.071909      2.000000
  0.000000  0.024242  0.071909      2.000000
  0.024242  0.024242  0.071909      2.000000
  0.048484  0.024242  0.071909      2.000000
 -0.048484  0.024242  0.071909      2.000000
 -0.024242  0.024242  0.071909      2.000000
  0.000000  0.048484  0.071909      2.000000
  0.024242  0.048484  0.071909      2.000000
  0.048484  0.048484  0.071909      2.000000
 -0.048484  0.048484  0.071909      2.000000
 -0.024242  0.048484  0.071909      2.000000
 


--------------------------------------------------------------------------------------------------------




 Dimension of arrays:
   k-points           NKPTS =     52   k-points in BZ     NKDIM =     52   number of bands    NBANDS=    110
   number of dos      NEDOS =    301   number of ions     NIONS =     36
   non local maximal  LDIM  =      6   non local SUM 2l+1 LMDIM =     18
   total plane-waves  NPLWV = 139968
   max r-space proj   IRMAX =      1   max aug-charges    IRDMAX=  92271
   dimension x,y,z NGX =    54 NGY =   54 NGZ =   48
   dimension x,y,z NGXF=   108 NGYF=  108 NGZF=   96
   support grid    NGXF=   216 NGYF=  216 NGZF=  192
   ions per type =              18  18
   NGX,Y,Z   is equivalent  to a cutoff of  10.88, 10.88, 11.48 a.u.
   NGXF,Y,Z  is equivalent  to a cutoff of  21.76, 21.76, 22.95 a.u.

 SYSTEM =  AlMn_pv                                 
 POSCAR =  NewRef: 18, @ ['Mn', array([1.37502469, 

 Startparameter for this run:
   NWRITE =      2    write-flag & timer
   PREC   = accura    normal or accurate (medium, high low for compatibility)
   ISTART =      0    job   : 0-new  1-cont  2-samecut
   ICHARG =      2    charge: 1-file 2-atom 10-const
   ISPIN  =      2    spin polarized calculation?
   LNONCOLLINEAR =      F non collinear calculations
   LSORBIT =      F    spin-orbit coupling
   INIWAV =      1    electr: 0-lowe 1-rand  2-diag
   LASPH  =      F    aspherical Exc in radial PAW
   METAGGA=      F    non-selfconsistent MetaGGA calc.

 Electronic Relaxation 1
   ENCUT  =  404.8 eV  29.75 Ry    5.45 a.u.  13.53 13.53 11.41*2*pi/ulx,y,z
   ENINI  =  404.8     initial cutoff
   ENAUG  =  500.7 eV  augmentation charge cutoff
   NELM   =    100;   NELMIN=  4; NELMDL= -8     # of ELM steps 
   EDIFF  = 0.1E-06   stopping-criterion for ELM
   LREAL  =      F    real-space projection
   NLSPLINE    = F    spline interpolate recip. space projectors
   LCOMPAT=      F    compatible to vasp.4.4
   GGA_COMPAT  = T    GGA compatible to vasp.4.4-vasp.4.6
   LMAXPAW     = -100 max onsite density
   LMAXMIX     =    2 max onsite mixed and CHGCAR
   VOSKOWN=      0    Vosko Wilk Nusair interpolation
   ROPT   =    0.00000   0.00000
 Ionic relaxation
   EDIFFG = 0.1E-05   stopping-criterion for IOM
   NSW    =      0    number of steps for IOM
   NBLOCK =      1;   KBLOCK =      1    inner block; outer block 
   IBRION =     -1    ionic relax: 0-MD 1-quasi-New 2-CG
   NFREE  =      0    steps in history (QN), initial steepest desc. (CG)
   ISIF   =      2    stress and relaxation
   IWAVPR =     10    prediction:  0-non 1-charg 2-wave 3-comb
   ISYM   =      2    0-nonsym 1-usesym 2-fastsym
   LCORR  =      T    Harris-Foulkes like correction to forces

   POTIM  = 0.2000    time-step for ionic-motion
   TEIN   =    0.0    initial temperature
   TEBEG  =    0.0;   TEEND  =   0.0 temperature during run
   SMASS  =  -3.00    Nose mass-parameter (am)
   estimated Nose-frequenzy (Omega)   =  0.10E-29 period in steps =****** mass=  -0.156E-26a.u.
   SCALEE = 1.0000    scale energy and forces
   NPACO  =    256;   APACO  = 16.0  distance and # of slots for P.C.
   PSTRESS=    0.0 pullay stress

  Mass of Ions in am
   POMASS =  26.98 54.94
  Ionic Valenz
   ZVAL   =   3.00  7.00
  Atomic Wigner-Seitz radii
   RWIGS  =  -1.00 -1.00
  virtual crystal weights 
   VCA    =   1.00  1.00
   NELECT =     180.0000    total number of electrons
   NUPDOWN=      -1.0000    fix difference up-down

 DOS related values:
   EMIN   =  10.00;   EMAX   =-10.00  energy-range for DOS
   EFERMI =   0.00
   ISMEAR =     1;   SIGMA  =   0.20  broadening in eV -4-tet -1-fermi 0-gaus

 Electronic relaxation 2 (details)
   IALGO  =     58    algorithm
   LDIAG  =      T    sub-space diagonalisation (order eigenvalues)
   LSUBROT=      F    optimize rotation matrix (better conditioning)
   TURBO    =      0    0=normal 1=particle mesh
   IRESTART =      0    0=no restart 2=restart with 2 vectors
   NREBOOT  =      0    no. of reboots
   NMIN     =      0    reboot dimension
   EREF     =   0.00    reference energy to select bands
   IMIX   =      4    mixing-type and parameters
     AMIX     =   0.40;   BMIX     =  1.00
     AMIX_MAG =   1.60;   BMIX_MAG =  1.00
     AMIN     =   0.10
     WC   =   100.;   INIMIX=   1;  MIXPRE=   1;  MAXMIX= -45

 Intra band minimization:
   WEIMIN = 0.0000     energy-eigenvalue tresh-hold
   EBREAK =  0.23E-09  absolut break condition
   DEPER  =   0.30     relativ break condition  

   TIME   =   0.40     timestep for ELM

  volume/ion in A,a.u.               =      13.15        88.72
  Fermi-wavevector in a.u.,A,eV,Ry     =   1.186118  2.241439 19.141722  1.406877
  Thomas-Fermi vector in A             =   2.322298
 
 Write flags
   LWAVE        =      F    write WAVECAR
   LDOWNSAMPLE  =      F    k-point downsampling of WAVECAR
   LCHARG       =      F    write CHGCAR
   LVTOT        =      F    write LOCPOT, total local potential
   LVHAR        =      F    write LOCPOT, Hartree potential only
   LELF         =      F    write electronic localiz. function (ELF)
   LORBIT       =     10    0 simple, 1 ext, 2 COOP (PROOUT), +10 PAW based schemes


 Dipole corrections
   LMONO  =      F    monopole corrections only (constant potential shift)
   LDIPOL =      F    correct potential (dipole corrections)
   IDIPOL =      0    1-x, 2-y, 3-z, 4-all directions 
   EPSILON=  1.0000000 bulk dielectric constant

 Exchange correlation treatment:
   GGA     =    --    GGA type
   LEXCH   =     8    internal setting for exchange type
   VOSKOWN=      0    Vosko Wilk Nusair interpolation
   LHFCALC =     F    Hartree Fock is set to
   LHFONE  =     F    Hartree Fock one center treatment
   AEXX    =    0.0000 exact exchange contribution

 Linear response parameters
   LEPSILON=     F    determine dielectric tensor
   LRPA    =     F    only Hartree local field effects (RPA)
   LNABLA  =     F    use nabla operator in PAW spheres
   LVEL    =     F    velocity operator in full k-point grid
   LINTERFAST=   F  fast interpolation
   KINTER  =     0    interpolate to denser k-point grid
   CSHIFT  =0.1000    complex shift for real part using Kramers Kronig
   OMEGAMAX=  -1.0    maximum frequency
   DEG_THRESHOLD= 0.2000000E-02 threshold for treating states as degnerate
   RTIME   =   -0.100 relaxation time in fs
  (WPLASMAI=    0.000 imaginary part of plasma frequency in eV, 0.658/RTIME)
   DFIELD  = 0.0000000 0.0000000 0.0000000 field for delta impulse in time
 
 Orbital magnetization related:
   ORBITALMAG=     F  switch on orbital magnetization
   LCHIMAG   =     F  perturbation theory with respect to B field
   DQ        =  0.001000  dq finite difference perturbation B field
   LLRAUG    =     F  two centre corrections for induced B field



--------------------------------------------------------------------------------------------------------


 Static calculation
 charge density and potential will be updated during run
 spin polarized calculation
 Conjugate gradient for all bands (Freysoldt, et al. PRB 79, 241103 (2009))
 preconditioned conjugated gradient                                        
 perform sub-space diagonalisation
    before iterative eigenvector-optimisation
 modified Broyden-mixing scheme, WC =      100.0
 initial mixing is a Kerker type mixing with AMIX =  0.4000 and BMIX =      1.0000
 Hartree-type preconditioning will be used
 using additional bands           20
 reciprocal scheme for non local part
 use partial core corrections
 no Harris-corrections to forces 
 use gradient corrections 
 use of overlap-Matrix (Vanderbilt PP)
 Methfessel and Paxton  Order N= 1 SIGMA  =   0.20


--------------------------------------------------------------------------------------------------------


  energy-cutoff  :      404.80
  volume of cell :      473.27
      direct lattice vectors                 reciprocal lattice vectors
     8.250148166  0.000000000  0.000000000     0.121209944  0.000000000  0.000000000
     0.000000000  8.250148166  0.000000000     0.000000000  0.121209944  0.000000000
     0.000000000  0.000000000  6.953274261     0.000000000  0.000000000  0.143817137

  length of vectors
     8.250148166  8.250148166  6.953274261     0.121209944  0.121209944  0.143817137


 
 k-points in units of 2pi/SCALE and weight: automatic KPOINTS                       
   0.00000000  0.00000000  0.00000000       0.007
   0.02424199  0.00000000  0.00000000       0.013
   0.04848398  0.00000000  0.00000000       0.013
   0.00000000  0.02424199  0.00000000       0.013
   0.02424199  0.02424199  0.00000000       0.013
   0.04848398  0.02424199  0.00000000       0.013
  -0.04848398  0.02424199  0.00000000       0.013
  -0.02424199  0.02424199  0.00000000       0.013
   0.00000000  0.04848398  0.00000000       0.013
   0.02424199  0.04848398  0.00000000       0.013
   0.04848398  0.04848398  0.00000000       0.013
  -0.04848398  0.04848398  0.00000000       0.013
  -0.02424199  0.04848398  0.00000000       0.013
   0.00000000  0.00000000  0.02396952       0.013
   0.02424199  0.00000000  0.02396952       0.027
   0.04848398  0.00000000  0.02396952       0.027
   0.00000000  0.02424199  0.02396952       0.027
   0.02424199  0.02424199  0.02396952       0.027
   0.04848398  0.02424199  0.02396952       0.027
  -0.04848398  0.02424199  0.02396952       0.027
  -0.02424199  0.02424199  0.02396952       0.027
   0.00000000  0.04848398  0.02396952       0.027
   0.02424199  0.04848398  0.02396952       0.027
   0.04848398  0.04848398  0.02396952       0.027
  -0.04848398  0.04848398  0.02396952       0.027
  -0.02424199  0.04848398  0.02396952       0.027
   0.00000000  0.00000000  0.04793905       0.013
   0.02424199  0.00000000  0.04793905       0.027
   0.04848398  0.00000000  0.04793905       0.027
   0.00000000  0.02424199  0.04793905       0.027
   0.02424199  0.02424199  0.04793905       0.027
   0.04848398  0.02424199  0.04793905       0.027
  -0.04848398  0.02424199  0.04793905       0.027
  -0.02424199  0.02424199  0.04793905       0.027
   0.00000000  0.04848398  0.04793905       0.027
   0.02424199  0.04848398  0.04793905       0.027
   0.04848398  0.04848398  0.04793905       0.027
  -0.04848398  0.04848398  0.04793905       0.027
  -0.02424199  0.04848398  0.04793905       0.027
   0.00000000  0.00000000  0.07190857       0.007
   0.02424199  0.00000000  0.07190857       0.013
   0.04848398  0.00000000  0.07190857       0.013
   0.00000000  0.02424199  0.07190857       0.013
   0.02424199  0.02424199  0.07190857       0.013
   0.04848398  0.02424199  0.07190857       0.013
  -0.04848398  0.02424199  0.07190857       0.013
  -0.02424199  0.02424199  0.07190857       0.013
   0.00000000  0.04848398  0.07190857       0.013
   0.02424199  0.04848398  0.07190857       0.013
   0.04848398  0.04848398  0.07190857       0.013
  -0.04848398  0.04848398  0.07190857       0.013
  -0.02424199  0.04848398  0.07190857       0.013
 
 k-points in reciprocal lattice and weights: automatic KPOINTS                       
   0.00000000  0.00000000  0.00000000       0.007
   0.20000000  0.00000000  0.00000000       0.013
   0.40000000  0.00000000  0.00000000       0.013
   0.00000000  0.20000000  0.00000000       0.013
   0.20000000  0.20000000  0.00000000       0.013
   0.40000000  0.20000000  0.00000000       0.013
  -0.40000000  0.20000000  0.00000000       0.013
  -0.20000000  0.20000000  0.00000000       0.013
   0.00000000  0.40000000  0.00000000       0.013
   0.20000000  0.40000000  0.00000000       0.013
   0.40000000  0.40000000  0.00000000       0.013
  -0.40000000  0.40000000  0.00000000       0.013
  -0.20000000  0.40000000  0.00000000       0.013
   0.00000000  0.00000000  0.16666667       0.013
   0.20000000  0.00000000  0.16666667       0.027
   0.40000000  0.00000000  0.16666667       0.027
   0.00000000  0.20000000  0.16666667       0.027
   0.20000000  0.20000000  0.16666667       0.027
   0.40000000  0.20000000  0.16666667       0.027
  -0.40000000  0.20000000  0.16666667       0.027
  -0.20000000  0.20000000  0.16666667       0.027
   0.00000000  0.40000000  0.16666667       0.027
   0.20000000  0.40000000  0.16666667       0.027
   0.40000000  0.40000000  0.16666667       0.027
  -0.40000000  0.40000000  0.16666667       0.027
  -0.20000000  0.40000000  0.16666667       0.027
   0.00000000  0.00000000  0.33333333       0.013
   0.20000000  0.00000000  0.33333333       0.027
   0.40000000  0.00000000  0.33333333       0.027
   0.00000000  0.20000000  0.33333333       0.027
   0.20000000  0.20000000  0.33333333       0.027
   0.40000000  0.20000000  0.33333333       0.027
  -0.40000000  0.20000000  0.33333333       0.027
  -0.20000000  0.20000000  0.33333333       0.027
   0.00000000  0.40000000  0.33333333       0.027
   0.20000000  0.40000000  0.33333333       0.027
   0.40000000  0.40000000  0.33333333       0.027
  -0.40000000  0.40000000  0.33333333       0.027
  -0.20000000  0.40000000  0.33333333       0.027
   0.00000000  0.00000000  0.50000000       0.007
   0.20000000  0.00000000  0.50000000       0.013
   0.40000000  0.00000000  0.50000000       0.013
   0.00000000  0.20000000  0.50000000       0.013
   0.20000000  0.20000000  0.50000000       0.013
   0.40000000  0.20000000  0.50000000       0.013
  -0.40000000  0.20000000  0.50000000       0.013
  -0.20000000  0.20000000  0.50000000       0.013
   0.00000000  0.40000000  0.50000000       0.013
   0.20000000  0.40000000  0.50000000       0.013
   0.40000000  0.40000000  0.50000000       0.013
  -0.40000000  0.40000000  0.50000000       0.013
  -0.20000000  0.40000000  0.50000000       0.013
 
 position of ions in fractional coordinates (direct lattice) 
   0.00000000  0.00000000  0.00000000
   0.00000000  0.00000000  0.50000000
   0.00000000  0.33333333  0.00000000
   0.00000000  0.33333333  0.50000000
   0.00000000  0.66666667  0.00000000
   0.00000000  0.66666667  0.50000000
   0.33333333  0.00000000  0.00000000
   0.33333333  0.00000000  0.50000000
   0.33333333  0.33333333  0.00000000
   0.33333333  0.33333333  0.50000000
   0.33333333  0.66666667  0.00000000
   0.33333333  0.66666667  0.50000000
   0.66666667  0.00000000  0.00000000
   0.66666667  0.00000000  0.50000000
   0.66666667  0.33333333  0.00000000
   0.66666667  0.33333333  0.50000000
   0.66666667  0.66666667  0.00000000
   0.66666667  0.66666667  0.50000000
   0.16666667  0.16666667  0.25000000
   0.16666667  0.16666667  0.75000000
   0.16666667  0.50000000  0.25000000
   0.16666667  0.50000000  0.75000000
   0.16666667  0.83333333  0.25000000
   0.16666667  0.83333333  0.75000000
   0.50000000  0.16666667  0.25000000
   0.50000000  0.16666667  0.75000000
   0.50000000  0.50000000  0.25000000
   0.50000000  0.50000000  0.75000000
   0.50000000  0.83333333  0.25000000
   0.50000000  0.83333333  0.75000000
   0.83333333  0.16666667  0.25000000
   0.83333333  0.16666667  0.75000000
   0.83333333  0.50000000  0.25000000
   0.83333333  0.50000000  0.75000000
   0.83333333  0.83333333  0.25000000
   0.83333333  0.83333333  0.75000000
 
 position of ions in cartesian coordinates  (Angst):
   0.00000000  0.00000000  0.00000000
   0.00000000  0.00000000  3.47663713
   0.00000000  2.75004939  0.00000000
   0.00000000  2.75004939  3.47663713
   0.00000000  5.50009878  0.00000000
   0.00000000  5.50009878  3.47663713
   2.75004939  0.00000000  0.00000000
   2.75004939  0.00000000  3.47663713
   2.75004939  2.75004939  0.00000000
   2.75004939  2.75004939  3.47663713
   2.75004939  5.50009878  0.00000000
   2.75004939  5.50009878  3.47663713
   5.50009878  0.00000000  0.00000000
   5.50009878  0.00000000  3.47663713
   5.50009878  2.75004939  0.00000000
   5.50009878  2.75004939  3.47663713
   5.50009878  5.50009878  0.00000000
   5.50009878  5.50009878  3.47663713
   1.37502469  1.37502469  1.73831857
   1.37502469  1.37502469  5.21495570
   1.37502469  4.12507408  1.73831857
   1.37502469  4.12507408  5.21495570
   1.37502469  6.87512347  1.73831857
   1.37502469  6.87512347  5.21495570
   4.12507408  1.37502469  1.73831857
   4.12507408  1.37502469  5.21495570
   4.12507408  4.12507408  1.73831857
   4.12507408  4.12507408  5.21495570
   4.12507408  6.87512347  1.73831857
   4.12507408  6.87512347  5.21495570
   6.87512347  1.37502469  1.73831857
   6.87512347  1.37502469  5.21495570
   6.87512347  4.12507408  1.73831857
   6.87512347  4.12507408  5.21495570
   6.87512347  6.87512347  1.73831857
   6.87512347  6.87512347  5.21495570
 


--------------------------------------------------------------------------------------------------------


 k-point  1 :   0.0000 0.0000 0.0000  plane waves:    8799
 k-point  2 :   0.2000 0.0000 0.0000  plane waves:    8753
 k-point  3 :   0.4000 0.0000 0.0000  plane waves:    8757
 k-point  4 :   0.0000 0.2000 0.0000  plane waves:    8753
 k-point  5 :   0.2000 0.2000 0.0000  plane waves:    8767
 k-point  6 :   0.4000 0.2000 0.0000  plane waves:    8761
 k-point  7 :  -0.4000 0.2000 0.0000  plane waves:    8761
 k-point  8 :  -0.2000 0.2000 0.0000  plane waves:    8767
 k-point  9 :   0.0000 0.4000 0.0000  plane waves:    8757
 k-point 10 :   0.2000 0.4000 0.0000  plane waves:    8761
 k-point 11 :   0.4000 0.4000 0.0000  plane waves:    8731
 k-point 12 :  -0.4000 0.4000 0.0000  plane waves:    8731
 k-point 13 :  -0.2000 0.4000 0.0000  plane waves:    8761
 k-point 14 :   0.0000 0.0000 0.1667  plane waves:    8763
 k-point 15 :   0.2000 0.0000 0.1667  plane waves:    8771
 k-point 16 :   0.4000 0.0000 0.1667  plane waves:    8747
 k-point 17 :   0.0000 0.2000 0.1667  plane waves:    8771
 k-point 18 :   0.2000 0.2000 0.1667  plane waves:    8764
 k-point 19 :   0.4000 0.2000 0.1667  plane waves:    8768
 k-point 20 :  -0.4000 0.2000 0.1667  plane waves:    8768
 k-point 21 :  -0.2000 0.2000 0.1667  plane waves:    8764
 k-point 22 :   0.0000 0.4000 0.1667  plane waves:    8747
 k-point 23 :   0.2000 0.4000 0.1667  plane waves:    8768
 k-point 24 :   0.4000 0.4000 0.1667  plane waves:    8740
 k-point 25 :  -0.4000 0.4000 0.1667  plane waves:    8740
 k-point 26 :  -0.2000 0.4000 0.1667  plane waves:    8768
 k-point 27 :   0.0000 0.0000 0.3333  plane waves:    8743
 k-point 28 :   0.2000 0.0000 0.3333  plane waves:    8736
 k-point 29 :   0.4000 0.0000 0.3333  plane waves:    8753
 k-point 30 :   0.0000 0.2000 0.3333  plane waves:    8736
 k-point 31 :   0.2000 0.2000 0.3333  plane waves:    8753
 k-point 32 :   0.4000 0.2000 0.3333  plane waves:    8743
 k-point 33 :  -0.4000 0.2000 0.3333  plane waves:    8743
 k-point 34 :  -0.2000 0.2000 0.3333  plane waves:    8753
 k-point 35 :   0.0000 0.4000 0.3333  plane waves:    8753
 k-point 36 :   0.2000 0.4000 0.3333  plane waves:    8743
 k-point 37 :   0.4000 0.4000 0.3333  plane waves:    8755
 k-point 38 :  -0.4000 0.4000 0.3333  plane waves:    8755
 k-point 39 :  -0.2000 0.4000 0.3333  plane waves:    8743
 k-point 40 :   0.0000 0.0000 0.5000  plane waves:    8742
 k-point 41 :   0.2000 0.0000 0.5000  plane waves:    8756
 k-point 42 :   0.4000 0.0000 0.5000  plane waves:    8744
 k-point 43 :   0.0000 0.2000 0.5000  plane waves:    8756
 k-point 44 :   0.2000 0.2000 0.5000  plane waves:    8762
 k-point 45 :   0.4000 0.2000 0.5000  plane waves:    8732
 k-point 46 :  -0.4000 0.2000 0.5000  plane waves:    8732
 k-point 47 :  -0.2000 0.2000 0.5000  plane waves:    8762
 k-point 48 :   0.0000 0.4000 0.5000  plane waves:    8744
 k-point 49 :   0.2000 0.4000 0.5000  plane waves:    8732
 k-point 50 :   0.4000 0.4000 0.5000  plane waves:    8736
 k-point 51 :  -0.4000 0.4000 0.5000  plane waves:    8736
 k-point 52 :  -0.2000 0.4000 0.5000  plane waves:    8732

 maximum and minimum number of plane-waves per node :      2210     2164

 maximum number of plane-waves:      8799
 maximum index in each direction: 
   IXMAX=   13   IYMAX=   13   IZMAX=   11
   IXMIN=  -13   IYMIN=  -13   IZMIN=  -11


 parallel 3D FFT for wavefunctions:
    minimum data exchange during FFTs selected (reduces bandwidth)
 parallel 3D FFT for charge:
    minimum data exchange during FFTs selected (reduces bandwidth)


 total amount of memory used by VASP MPI-rank0   740218. kBytes
=======================================================================

   base      :      30000. kBytes
   nonl-proj :      34307. kBytes
   fftplans  :      21726. kBytes
   grid      :      14732. kBytes
   one-center:        279. kBytes
   wavefun   :     639174. kBytes
 
     INWAV:  cpu time    0.0001: real time    0.0001
 Broyden mixing: mesh for mixing (old mesh)
   NGX = 27   NGY = 27   NGZ = 23
  (NGX  =108   NGY  =108   NGZ  = 96)
  gives a total of  16767 points

 initial charge density was supplied:
 charge density of overlapping atoms calculated
 number of electron     180.0000000 magnetization       0.0000000
 keeping initial charge density in first step


--------------------------------------------------------------------------------------------------------


 Maximum index for augmentation-charges        11261 (set IRDMAX)


--------------------------------------------------------------------------------------------------------


 First call to EWALD:  gamma=   0.227
 Maximum number of real-space cells 3x 3x 3
 Maximum number of reciprocal cells 3x 3x 3

    FEWALD:  cpu time    0.0034: real time    0.0034


--------------------------------------- Iteration      1(   1)  ---------------------------------------


    POTLOK:  cpu time    0.2506: real time    0.2520
    SETDIJ:  cpu time    0.3196: real time    0.3206
    TRIAL :  cpu time   18.4410: real time   19.3317
    CORREC:  cpu time    0.0066: real time    0.0074
    --------------------------------------------
      LOOP:  cpu time   19.2322: real time   20.1347

 eigenvalue-minimisations  : 22880
 total energy-change (2. order) : 0.1352875E+04  (-0.5847918E+04)
 number of electron     180.0000000 magnetization       0.0000000
 augmentation part      180.0000000 magnetization       0.0000000

 Free energy of the ion-electron system (eV)
  ---------------------------------------------------
  alpha Z        PSCENC =       532.25742704
  Ewald energy   TEWEN  =     -8601.05107233
  -Hartree energ DENC   =     -1903.73857242
  -exchange      EXHF   =         0.00000000
  -V(xc)+E(xc)   XCENC  =      -664.49868739
  PAW double counting   =      8494.55058411    -7650.81563588
  entropy T*S    EENTRO =        -0.00179287
  eigenvalues    EBANDS =      2681.05637105
  atomic energy  EATOM  =      8465.11600846
  ---------------------------------------------------
  free energy    TOTEN  =      1352.87462977 eV

  energy without entropy =     1352.87642264  energy(sigma->0) =     1352.87522739


--------------------------------------------------------------------------------------------------------




--------------------------------------- Iteration      1(   2)  ---------------------------------------


    TRIAL :  cpu time   18.8720: real time   19.7034
    CORREC:  cpu time    0.0078: real time    0.0080
    --------------------------------------------
      LOOP:  cpu time   18.8809: real time   19.7146

 eigenvalue-minimisations  : 22880
 total energy-change (2. order) :-0.1408634E+04  (-0.1379202E+04)
 number of electron     180.0000000 magnetization       0.0000000
 augmentation part      180.0000000 magnetization       0.0000000

 Free energy of the ion-electron system (eV)
  ---------------------------------------------------
  alpha Z        PSCENC =       532.25742704
  Ewald energy   TEWEN  =     -8601.05107233
  -Hartree energ DENC   =     -1903.73857242
  -exchange      EXHF   =         0.00000000
  -V(xc)+E(xc)   XCENC  =      -664.49868739
  PAW double counting   =      8494.55058411    -7650.81563588
  entropy T*S    EENTRO =        -0.00661603
  eigenvalues    EBANDS =      1272.42716878
  atomic energy  EATOM  =      8465.11600846
  ---------------------------------------------------
  free energy    TOTEN  =       -55.75939566 eV

  energy without entropy =      -55.75277963  energy(sigma->0) =      -55.75719031


--------------------------------------------------------------------------------------------------------




--------------------------------------- Iteration      1(   3)  ---------------------------------------


    TRIAL :  cpu time   26.7286: real time   27.7145
    CORREC:  cpu time    0.0094: real time    0.0103
    --------------------------------------------
      LOOP:  cpu time   26.7389: real time   27.7280

 eigenvalue-minimisations  : 34976
 total energy-change (2. order) :-0.1810233E+03  (-0.1637063E+03)
 number of electron     180.0000000 magnetization       0.0000000
 augmentation part      180.0000000 magnetization       0.0000000

 Free energy of the ion-electron system (eV)
  ---------------------------------------------------
  alpha Z        PSCENC =       532.25742704
  Ewald energy   TEWEN  =     -8601.05107233
  -Hartree energ DENC   =     -1903.73857242
  -exchange      EXHF   =         0.00000000
  -V(xc)+E(xc)   XCENC  =      -664.49868739
  PAW double counting   =      8494.55058411    -7650.81563588
  entropy T*S    EENTRO =         0.00109600
  eigenvalues    EBANDS =      1091.39611111
  atomic energy  EATOM  =      8465.11600846
  ---------------------------------------------------
  free energy    TOTEN  =      -236.78274130 eV

  energy without entropy =     -236.78383730  energy(sigma->0) =     -236.78310663


--------------------------------------------------------------------------------------------------------




--------------------------------------- Iteration      1(   4)  ---------------------------------------


    TRIAL :  cpu time   27.2047: real time   29.1112
    CORREC:  cpu time    0.0100: real time    0.0108
    --------------------------------------------
      LOOP:  cpu time   27.2160: real time   29.1254

 eigenvalue-minimisations  : 37488
 total energy-change (2. order) :-0.2957934E+02  (-0.2667094E+02)
 number of electron     180.0000000 magnetization       0.0000000
 augmentation part      180.0000000 magnetization       0.0000000

 Free energy of the ion-electron system (eV)
  ---------------------------------------------------
  alpha Z        PSCENC =       532.25742704
  Ewald energy   TEWEN  =     -8601.05107233
  -Hartree energ DENC   =     -1903.73857242
  -exchange      EXHF   =         0.00000000
  -V(xc)+E(xc)   XCENC  =      -664.49868739
  PAW double counting   =      8494.55058411    -7650.81563588
  entropy T*S    EENTRO =         0.02359187
  eigenvalues    EBANDS =      1061.79427690
  atomic energy  EATOM  =      8465.11600846
  ---------------------------------------------------
  free energy    TOTEN  =      -266.36207963 eV

  energy without entropy =     -266.38567151  energy(sigma->0) =     -266.36994359


--------------------------------------------------------------------------------------------------------




--------------------------------------- Iteration      1(   5)  ---------------------------------------


    TRIAL :  cpu time   29.1933: real time   29.4131
    CORREC:  cpu time    0.0101: real time    0.0110
    --------------------------------------------
      LOOP:  cpu time   29.2068: real time   29.4277

 eigenvalue-minimisations  : 38296
 total energy-change (2. order) :-0.3216504E+01  (-0.3077521E+01)
 number of electron     180.0000000 magnetization       0.0000000
 augmentation part      180.0000000 magnetization       0.0000000

 Free energy of the ion-electron system (eV)
  ---------------------------------------------------
  alpha Z        PSCENC =       532.25742704
  Ewald energy   TEWEN  =     -8601.05107233
  -Hartree energ DENC   =     -1903.73857242
  -exchange      EXHF   =         0.00000000
  -V(xc)+E(xc)   XCENC  =      -664.49868739
  PAW double counting   =      8494.55058411    -7650.81563588
  entropy T*S    EENTRO =         0.02429058
  eigenvalues    EBANDS =      1058.57707380
  atomic energy  EATOM  =      8465.11600846
  ---------------------------------------------------
  free energy    TOTEN  =      -269.57858403 eV

  energy without entropy =     -269.60287461  energy(sigma->0) =     -269.58668089


--------------------------------------------------------------------------------------------------------




--------------------------------------- Iteration      1(   6)  ---------------------------------------


    TRIAL :  cpu time   27.9594: real time   28.9481
    CORREC:  cpu time    0.0098: real time    0.0100
    --------------------------------------------
      LOOP:  cpu time   28.2644: real time   29.2859

 eigenvalue-minimisations  : 38176
 total energy-change (2. order) :-0.2792905E+00  (-0.2718468E+00)
 number of electron     180.0000000 magnetization       0.0000000
 augmentation part      180.0000000 magnetization       0.0000000

 Free energy of the ion-electron system (eV)
  ---------------------------------------------------
  alpha Z        PSCENC =       532.25742704
  Ewald energy   TEWEN  =     -8601.05107233
  -Hartree energ DENC   =     -1903.73857242
  -exchange      EXHF   =         0.00000000
  -V(xc)+E(xc)   XCENC  =      -664.49868739
  PAW double counting   =      8494.55058411    -7650.81563588
  entropy T*S    EENTRO =         0.02530290
  eigenvalues    EBANDS =      1058.29677100
  atomic energy  EATOM  =      8465.11600846
  ---------------------------------------------------
  free energy    TOTEN  =      -269.85787451 eV

  energy without entropy =     -269.88317741  energy(sigma->0) =     -269.86630881


--------------------------------------------------------------------------------------------------------




--------------------------------------- Iteration      1(   7)  ---------------------------------------


    TRIAL :  cpu time   29.5107: real time   30.5486
    CORREC:  cpu time    0.0103: real time    0.0112
    --------------------------------------------
      LOOP:  cpu time   29.5246: real time   30.5636

 eigenvalue-minimisations  : 38944
 total energy-change (2. order) :-0.3306537E-01  (-0.3254337E-01)
 number of electron     180.0000000 magnetization       0.0000000
 augmentation part      180.0000000 magnetization       0.0000000

 Free energy of the ion-electron system (eV)
  ---------------------------------------------------
  alpha Z        PSCENC =       532.25742704
  Ewald energy   TEWEN  =     -8601.05107233
  -Hartree energ DENC   =     -1903.73857242
  -exchange      EXHF   =         0.00000000
  -V(xc)+E(xc)   XCENC  =      -664.49868739
  PAW double counting   =      8494.55058411    -7650.81563588
  entropy T*S    EENTRO =         0.02591657
  eigenvalues    EBANDS =      1058.26309195
  atomic energy  EATOM  =      8465.11600846
  ---------------------------------------------------
  free energy    TOTEN  =      -269.89093989 eV

  energy without entropy =     -269.91685646  energy(sigma->0) =     -269.89957874


--------------------------------------------------------------------------------------------------------




--------------------------------------- Iteration      1(   8)  ---------------------------------------


    TRIAL :  cpu time   28.9173: real time   29.2946
    CORREC:  cpu time    0.0103: real time    0.0111
    CHARGE:  cpu time    1.1179: real time    1.1185
    --------------------------------------------
      LOOP:  cpu time   30.0466: real time   30.4278

 eigenvalue-minimisations  : 37368
 total energy-change (2. order) :-0.3369650E-02  (-0.3329934E-02)
 number of electron     179.9999997 magnetization       0.2785139
 augmentation part       42.6342742 magnetization       0.1530917

 Free energy of the ion-electron system (eV)
  ---------------------------------------------------
  alpha Z        PSCENC =       532.25742704
  Ewald energy   TEWEN  =     -8601.05107233
  -Hartree energ DENC   =     -1903.73857242
  -exchange      EXHF   =         0.00000000
  -V(xc)+E(xc)   XCENC  =      -664.49868739
  PAW double counting   =      8494.55058411    -7650.81563588
  entropy T*S    EENTRO =         0.02623598
  eigenvalues    EBANDS =      1058.25940289
  atomic energy  EATOM  =      8465.11600846
  ---------------------------------------------------
  free energy    TOTEN  =      -269.89430953 eV

  energy without entropy =     -269.92054552  energy(sigma->0) =     -269.90305486


--------------------------------------------------------------------------------------------------------




--------------------------------------- Iteration      1(   9)  ---------------------------------------


    POTLOK:  cpu time    0.2551: real time    0.2551
    SETDIJ:  cpu time    0.3340: real time    0.3342
    TRIAL :  cpu time   10.3351: real time   10.4867
    CORREC:  cpu time    3.3740: real time    3.3932
    CHARGE:  cpu time    1.1464: real time    1.1472
    --------------------------------------------
      LOOP:  cpu time   15.4617: real time   15.6350

 eigenvalue-minimisations  :     0
 total energy-change (2. order) : 0.2062522E+03  (-0.1435272E+03)
 number of electron     179.9999997 magnetization       0.1506206
 augmentation part       54.1969008 magnetization       0.0733008

 Free energy of the ion-electron system (eV)
  ---------------------------------------------------
  alpha Z        PSCENC =       532.25742704
  Ewald energy   TEWEN  =     -8601.05107233
  -Hartree energ DENC   =      -844.31079136
  -exchange      EXHF   =         0.00000000
  -V(xc)+E(xc)   XCENC  =      -694.20871298
  PAW double counting   =     12762.89300585   -11816.29275989
  entropy T*S    EENTRO =         0.03039103
  eigenvalues    EBANDS =       131.92855442
  atomic energy  EATOM  =      8465.11600846
  ---------------------------------------------------
  free energy    TOTEN  =       -63.64210481 eV

  energy without entropy =      -63.67249584  energy(sigma->0) =      -63.65223516


--------------------------------------------------------------------------------------------------------




--------------------------------------- Iteration      1(  10)  ---------------------------------------


    POTLOK:  cpu time    0.2480: real time    0.2481
    SETDIJ:  cpu time    0.3361: real time    0.3765
    TRIAL :  cpu time    9.0524: real time   10.1078
    CORREC:  cpu time    3.3384: real time    3.3608
    CHARGE:  cpu time    1.0937: real time    1.1240
    --------------------------------------------
      LOOP:  cpu time   14.0700: real time   15.2195

 eigenvalue-minimisations  :     0
 total energy-change (2. order) :-0.1442707E+03  (-0.1041128E+02)
 number of electron     179.9999996 magnetization       0.0475553
 augmentation part       57.6514770 magnetization       0.0345205

 Free energy of the ion-electron system (eV)
  ---------------------------------------------------
  alpha Z        PSCENC =       532.25742704
  Ewald energy   TEWEN  =     -8601.05107233
  -Hartree energ DENC   =     -1363.36089696
  -exchange      EXHF   =         0.00000000
  -V(xc)+E(xc)   XCENC  =      -676.51830269
  PAW double counting   =     13589.63123189   -12756.25114157
  entropy T*S    EENTRO =         0.02197506
  eigenvalues    EBANDS =       602.23358243
  atomic energy  EATOM  =      8465.11600846
  ---------------------------------------------------
  free energy    TOTEN  =      -207.91277272 eV

  energy without entropy =     -207.93474778  energy(sigma->0) =     -207.92009774


--------------------------------------------------------------------------------------------------------




--------------------------------------- Iteration      1(  11)  ---------------------------------------


    POTLOK:  cpu time    0.2477: real time    0.2478
    SETDIJ:  cpu time    0.3224: real time    0.3225
    TRIAL :  cpu time    9.6250: real time   10.1783
    CORREC:  cpu time    3.3016: real time    3.3635
    CHARGE:  cpu time    1.0599: real time    1.0673
    --------------------------------------------
      LOOP:  cpu time   14.5598: real time   15.1843

 eigenvalue-minimisations  :     0
 total energy-change (2. order) :-0.1046172E+02  (-0.8537783E+01)
 number of electron     179.9999996 magnetization      -0.1570398
 augmentation part       59.0881620 magnetization      -0.1156692

 Free energy of the ion-electron system (eV)
  ---------------------------------------------------
  alpha Z        PSCENC =       532.25742704
  Ewald energy   TEWEN  =     -8601.05107233
  -Hartree energ DENC   =     -1558.44675560
  -exchange      EXHF   =         0.00000000
  -V(xc)+E(xc)   XCENC  =      -669.56168433
  PAW double counting   =     14411.71518005   -13614.21247988
  entropy T*S    EENTRO =         0.01672488
  eigenvalues    EBANDS =       815.78691032
  atomic energy  EATOM  =      8465.11600846
  ---------------------------------------------------
  free energy    TOTEN  =      -218.37449121 eV

  energy without entropy =     -218.39121609  energy(sigma->0) =     -218.38006617


--------------------------------------------------------------------------------------------------------




--------------------------------------- Iteration      1(  12)  ---------------------------------------


    POTLOK:  cpu time    0.2472: real time    0.2474
    SETDIJ:  cpu time    0.3388: real time    0.3391
    TRIAL :  cpu time    8.9695: real time    8.9869
    CORREC:  cpu time    3.9275: real time    4.4657
    CHARGE:  cpu time    1.0750: real time    1.0923
    --------------------------------------------
      LOOP:  cpu time   14.5612: real time   15.1356

 eigenvalue-minimisations  :     0
 total energy-change (2. order) :-0.8552609E+01  (-0.6429840E+01)
 number of electron     179.9999996 magnetization      -0.4469345
 augmentation part       58.4212020 magnetization      -0.2696416

 Free energy of the ion-electron system (eV)
  ---------------------------------------------------
  alpha Z        PSCENC =       532.25742704
  Ewald energy   TEWEN  =     -8601.05107233
  -Hartree energ DENC   =     -1694.00120756
  -exchange      EXHF   =         0.00000000
  -V(xc)+E(xc)   XCENC  =      -665.10333587
  PAW double counting   =     14466.46580098   -13671.14125955
  entropy T*S    EENTRO =         0.00823316
  eigenvalues    EBANDS =       940.51381363
  atomic energy  EATOM  =      8465.11600846
  ---------------------------------------------------
  free energy    TOTEN  =      -226.92710032 eV

  energy without entropy =     -226.93533348  energy(sigma->0) =     -226.92984471


--------------------------------------------------------------------------------------------------------




--------------------------------------- Iteration      1(  13)  ---------------------------------------


    POTLOK:  cpu time    0.8971: real time    0.8983
    SETDIJ:  cpu time    0.3159: real time    0.3163
    TRIAL :  cpu time    8.9960: real time    9.0615
    CORREC:  cpu time    4.1040: real time    4.1929
    CHARGE:  cpu time    1.1085: real time    1.1193
    --------------------------------------------
      LOOP:  cpu time   15.7448: real time   15.9128

 eigenvalue-minimisations  :     0
 total energy-change (2. order) :-0.6418955E+01  (-0.1130448E+01)
 number of electron     179.9999996 magnetization      -0.4006850
 augmentation part       57.5028812 magnetization      -0.2547664

 Free energy of the ion-electron system (eV)
  ---------------------------------------------------
  alpha Z        PSCENC =       532.25742704
  Ewald energy   TEWEN  =     -8601.05107233
  -Hartree energ DENC   =     -1708.13354166
  -exchange      EXHF   =         0.00000000
  -V(xc)+E(xc)   XCENC  =      -665.01107913
  PAW double counting   =     14252.51395805   -13435.16525525
  entropy T*S    EENTRO =         0.00862064
  eigenvalues    EBANDS =       926.11926665
  atomic energy  EATOM  =      8465.11600846
  ---------------------------------------------------
  free energy    TOTEN  =      -233.34605501 eV

  energy without entropy =     -233.35467565  energy(sigma->0) =     -233.34892855


--------------------------------------------------------------------------------------------------------




--------------------------------------- Iteration      1(  14)  ---------------------------------------


    POTLOK:  cpu time    0.2475: real time    0.2476
    SETDIJ:  cpu time    0.3219: real time    0.3221
    TRIAL :  cpu time    8.9588: real time    9.0275
    CORREC:  cpu time    3.3750: real time    4.0454
    CHARGE:  cpu time    1.0739: real time    1.0742
    --------------------------------------------
      LOOP:  cpu time   14.0137: real time   14.7539

 eigenvalue-minimisations  :     0
 total energy-change (2. order) :-0.1112455E+01  (-0.5974785E+00)
 number of electron     179.9999996 magnetization      -0.4900797
 augmentation part       57.2084460 magnetization      -0.3041547

 Free energy of the ion-electron system (eV)
  ---------------------------------------------------
  alpha Z        PSCENC =       532.25742704
  Ewald energy   TEWEN  =     -8601.05107233
  -Hartree energ DENC   =     -1663.60489545
  -exchange      EXHF   =         0.00000000
  -V(xc)+E(xc)   XCENC  =      -666.65325672
  PAW double counting   =     13974.46901245   -13143.28256533
  entropy T*S    EENTRO =         0.00991526
  eigenvalues    EBANDS =       868.28221088
  atomic energy  EATOM  =      8465.11600846
  ---------------------------------------------------
  free energy    TOTEN  =      -234.45851035 eV

  energy without entropy =     -234.46842561  energy(sigma->0) =     -234.46181544


--------------------------------------------------------------------------------------------------------




--------------------------------------- Iteration      1(  15)  ---------------------------------------


    POTLOK:  cpu time    0.2483: real time    0.2483
    SETDIJ:  cpu time    0.3197: real time    0.3198
    TRIAL :  cpu time    8.9451: real time    9.0665
    CORREC:  cpu time    3.6503: real time    4.3232
    CHARGE:  cpu time    1.1682: real time    1.1684
    --------------------------------------------
      LOOP:  cpu time   14.3346: real time   15.1316

 eigenvalue-minimisations  :     0
 total energy-change (2. order) :-0.5955152E+00  (-0.7744142E+00)
 number of electron     179.9999996 magnetization      -0.4873548
 augmentation part       57.6188801 magnetization      -0.3145631

 Free energy of the ion-electron system (eV)
  ---------------------------------------------------
  alpha Z        PSCENC =       532.25742704
  Ewald energy   TEWEN  =     -8601.05107233
  -Hartree energ DENC   =     -1643.06496355
  -exchange      EXHF   =         0.00000000
  -V(xc)+E(xc)   XCENC  =      -667.38508389
  PAW double counting   =     13612.90732203   -12775.97568203
  entropy T*S    EENTRO =         0.01033279
  eigenvalues    EBANDS =       842.13210348
  atomic energy  EATOM  =      8465.11600846
  ---------------------------------------------------
  free energy    TOTEN  =      -235.05402553 eV

  energy without entropy =     -235.06435833  energy(sigma->0) =     -235.05746980


--------------------------------------------------------------------------------------------------------




--------------------------------------- Iteration      1(  16)  ---------------------------------------


    POTLOK:  cpu time    0.2483: real time    0.2483
    SETDIJ:  cpu time    0.3391: real time    0.3392
    TRIAL :  cpu time    8.9506: real time    8.9818
    CORREC:  cpu time    3.3335: real time    3.3678
    CHARGE:  cpu time    1.0658: real time    1.0687
    --------------------------------------------
      LOOP:  cpu time   13.9474: real time   14.0167

 eigenvalue-minimisations  :     0
 total energy-change (2. order) :-0.7740780E+00  (-0.2021482E+00)
 number of electron     179.9999996 magnetization      -0.5415806
 augmentation part       58.0541912 magnetization      -0.3491467

 Free energy of the ion-electron system (eV)
  ---------------------------------------------------
  alpha Z        PSCENC =       532.25742704
  Ewald energy   TEWEN  =     -8601.05107233
  -Hartree energ DENC   =     -1652.25777679
  -exchange      EXHF   =         0.00000000
  -V(xc)+E(xc)   XCENC  =      -666.94140651
  PAW double counting   =     13129.78537761   -12294.29757905
  entropy T*S    EENTRO =         0.01036380
  eigenvalues    EBANDS =       851.55058524
  atomic energy  EATOM  =      8465.11600846
  ---------------------------------------------------
  free energy    TOTEN  =      -235.82810354 eV

  energy without entropy =     -235.83846735  energy(sigma->0) =     -235.83155814


--------------------------------------------------------------------------------------------------------




--------------------------------------- Iteration      1(  17)  ---------------------------------------


    POTLOK:  cpu time    0.2879: real time    1.0412
    SETDIJ:  cpu time    0.3147: real time    0.3147
    TRIAL :  cpu time    9.0167: real time    9.0613
    CORREC:  cpu time    3.4265: real time    3.4317
    CHARGE:  cpu time    1.0715: real time    1.0856
    --------------------------------------------
      LOOP:  cpu time   14.4318: real time   15.2514

 eigenvalue-minimisations  :     0
 total energy-change (2. order) :-0.2020013E+00  (-0.1633707E+00)
 number of electron     179.9999996 magnetization      -0.5627949
 augmentation part       58.2531411 magnetization      -0.3723561

 Free energy of the ion-electron system (eV)
  ---------------------------------------------------
  alpha Z        PSCENC =       532.25742704
  Ewald energy   TEWEN  =     -8601.05107233
  -Hartree energ DENC   =     -1671.17763556
  -exchange      EXHF   =         0.00000000
  -V(xc)+E(xc)   XCENC  =      -666.16055704
  PAW double counting   =     13046.92456858   -12215.81727776
  entropy T*S    EENTRO =         0.01178961
  eigenvalues    EBANDS =       873.86806998
  atomic energy  EATOM  =      8465.11600846
  ---------------------------------------------------
  free energy    TOTEN  =      -236.03010483 eV

  energy without entropy =     -236.04189444  energy(sigma->0) =     -236.03403470


--------------------------------------------------------------------------------------------------------




--------------------------------------- Iteration      1(  18)  ---------------------------------------


    POTLOK:  cpu time    0.2472: real time    0.2473
    SETDIJ:  cpu time    0.3574: real time    0.3577
    TRIAL :  cpu time    9.3906: real time   10.0628
    CORREC:  cpu time    3.3302: real time    3.3513
    CHARGE:  cpu time    1.1043: real time    1.1139
    --------------------------------------------
      LOOP:  cpu time   14.4384: real time   15.1417

 eigenvalue-minimisations  :     0
 total energy-change (2. order) :-0.1630205E+00  (-0.1478797E+00)
 number of electron     179.9999996 magnetization      -0.6415539
 augmentation part       58.1139796 magnetization      -0.4251314

 Free energy of the ion-electron system (eV)
  ---------------------------------------------------
  alpha Z        PSCENC =       532.25742704
  Ewald energy   TEWEN  =     -8601.05107233
  -Hartree energ DENC   =     -1678.62254314
  -exchange      EXHF   =         0.00000000
  -V(xc)+E(xc)   XCENC  =      -665.72294484
  PAW double counting   =     13002.28268465   -12173.43860737
  entropy T*S    EENTRO =         0.01219995
  eigenvalues    EBANDS =       882.97413259
  atomic energy  EATOM  =      8465.11600846
  ---------------------------------------------------
  free energy    TOTEN  =      -236.19312533 eV

  energy without entropy =     -236.20532528  energy(sigma->0) =     -236.19719198


--------------------------------------------------------------------------------------------------------




--------------------------------------- Iteration      1(  19)  ---------------------------------------


    POTLOK:  cpu time    0.2475: real time    0.2477
    SETDIJ:  cpu time    0.3391: real time    0.3391
    TRIAL :  cpu time    9.3443: real time   10.0728
    CORREC:  cpu time    3.3076: real time    3.3722
    CHARGE:  cpu time    1.0701: real time    1.0765
    --------------------------------------------
      LOOP:  cpu time   14.3119: real time   15.1129

 eigenvalue-minimisations  :     0
 total energy-change (2. order) :-0.1473797E+00  (-0.4796207E-01)
 number of electron     179.9999996 magnetization      -0.6439832
 augmentation part       57.9570480 magnetization      -0.4330716

 Free energy of the ion-electron system (eV)
  ---------------------------------------------------
  alpha Z        PSCENC =       532.25742704
  Ewald energy   TEWEN  =     -8601.05107233
  -Hartree energ DENC   =     -1669.23449304
  -exchange      EXHF   =         0.00000000
  -V(xc)+E(xc)   XCENC  =      -665.87636406
  PAW double counting   =     12966.50398032   -12136.36591908
  entropy T*S    EENTRO =         0.01282089
  eigenvalues    EBANDS =       872.29772770
  atomic energy  EATOM  =      8465.11600846
  ---------------------------------------------------
  free energy    TOTEN  =      -236.34050505 eV

  energy without entropy =     -236.35332594  energy(sigma->0) =     -236.34477868


--------------------------------------------------------------------------------------------------------




--------------------------------------- Iteration      1(  20)  ---------------------------------------


    POTLOK:  cpu time    0.2486: real time    0.2486
    SETDIJ:  cpu time    0.3781: real time    0.3788
    TRIAL :  cpu time    9.0378: real time    9.7861
    CORREC:  cpu time    3.3589: real time    3.3880
    CHARGE:  cpu time    1.1789: real time    1.9121
    --------------------------------------------
      LOOP:  cpu time   14.2082: real time   15.7213

 eigenvalue-minimisations  :     0
 total energy-change (2. order) :-0.4764830E-01  (-0.5646160E-01)
 number of electron     179.9999996 magnetization      -0.6866386
 augmentation part       57.7918710 magnetization      -0.4621611

 Free energy of the ion-electron system (eV)
  ---------------------------------------------------
  alpha Z        PSCENC =       532.25742704
  Ewald energy   TEWEN  =     -8601.05107233
  -Hartree energ DENC   =     -1661.16164907
  -exchange      EXHF   =         0.00000000
  -V(xc)+E(xc)   XCENC  =      -666.09470870
  PAW double counting   =     12955.01358302   -12123.31173018
  entropy T*S    EENTRO =         0.01317286
  eigenvalues    EBANDS =       862.83116751
  atomic energy  EATOM  =      8465.11600846
  ---------------------------------------------------
  free energy    TOTEN  =      -236.38815335 eV

  energy without entropy =     -236.40132621  energy(sigma->0) =     -236.39254430


--------------------------------------------------------------------------------------------------------




--------------------------------------- Iteration      1(  21)  ---------------------------------------


    POTLOK:  cpu time    0.2479: real time    0.2480
    SETDIJ:  cpu time    0.3411: real time    0.3412
    TRIAL :  cpu time    9.3932: real time   10.0915
    CORREC:  cpu time    3.4188: real time    3.4372
    CHARGE:  cpu time    1.0929: real time    1.0935
    --------------------------------------------
      LOOP:  cpu time   14.4957: real time   15.2139

 eigenvalue-minimisations  :     0
 total energy-change (2. order) :-0.5645944E-01  (-0.6081600E-01)
 number of electron     179.9999996 magnetization      -0.7221827
 augmentation part       57.8504248 magnetization      -0.4917489

 Free energy of the ion-electron system (eV)
  ---------------------------------------------------
  alpha Z        PSCENC =       532.25742704
  Ewald energy   TEWEN  =     -8601.05107233
  -Hartree energ DENC   =     -1654.45135220
  -exchange      EXHF   =         0.00000000
  -V(xc)+E(xc)   XCENC  =      -666.25850194
  PAW double counting   =     12954.75179092   -12121.58085837
  entropy T*S    EENTRO =         0.01381448
  eigenvalues    EBANDS =       854.75877279
  atomic energy  EATOM  =      8465.11600846
  ---------------------------------------------------
  free energy    TOTEN  =      -236.44461278 eV

  energy without entropy =     -236.45842726  energy(sigma->0) =     -236.44921761


--------------------------------------------------------------------------------------------------------




--------------------------------------- Iteration      1(  22)  ---------------------------------------


    POTLOK:  cpu time    0.2477: real time    0.2478
    SETDIJ:  cpu time    0.3122: real time    0.3636
    TRIAL :  cpu time    9.3452: real time   10.0189
    CORREC:  cpu time    3.3537: real time    3.4035
    CHARGE:  cpu time    1.0715: real time    1.0720
    --------------------------------------------
      LOOP:  cpu time   14.3333: real time   15.1109

 eigenvalue-minimisations  :     0
 total energy-change (2. order) :-0.6079929E-01  (-0.1894280E-01)
 number of electron     179.9999996 magnetization      -0.7546585
 augmentation part       57.9390590 magnetization      -0.5121652

 Free energy of the ion-electron system (eV)
  ---------------------------------------------------
  alpha Z        PSCENC =       532.25742704
  Ewald energy   TEWEN  =     -8601.05107233
  -Hartree energ DENC   =     -1660.56337263
  -exchange      EXHF   =         0.00000000
  -V(xc)+E(xc)   XCENC  =      -665.95223560
  PAW double counting   =     12983.03771091   -12150.98460400
  entropy T*S    EENTRO =         0.01356399
  eigenvalues    EBANDS =       861.62091159
  atomic energy  EATOM  =      8465.11600846
  ---------------------------------------------------
  free energy    TOTEN  =      -236.50541208 eV

  energy without entropy =     -236.51897607  energy(sigma->0) =     -236.50993341


--------------------------------------------------------------------------------------------------------




--------------------------------------- Iteration      1(  23)  ---------------------------------------


    POTLOK:  cpu time    0.2458: real time    0.2461
    SETDIJ:  cpu time    0.3565: real time    0.3566
    TRIAL :  cpu time    9.3816: real time   10.1691
    CORREC:  cpu time    3.2561: real time    3.3517
    CHARGE:  cpu time    1.1190: real time    1.1196
    --------------------------------------------
[...]
  8.438  14.380   0.000  -0.000   0.000   0.001  -0.001   0.001
 14.380  24.505   0.001  -0.001   0.000   0.002  -0.002   0.001
  0.000   0.001   1.996   0.000  -0.000   5.748   0.000  -0.000
 -0.000  -0.001   0.000   1.995   0.000   0.000   5.747   0.000
  0.000   0.000  -0.000   0.000   1.996  -0.000   0.000   5.748
  0.001   0.002   5.748   0.000  -0.000  16.473   0.001  -0.000
 -0.001  -0.002   0.000   5.747   0.000   0.001  16.468   0.001
  0.001   0.001  -0.000   0.000   5.748  -0.000   0.001  16.473
 total augmentation occupancy for first ion, spin component:           1
  4.372  -1.248  -0.001  -0.001  -0.002   0.001   0.000   0.001
 -1.248   0.376  -0.002   0.000   0.000  -0.000   0.000  -0.000
 -0.001  -0.002   1.384   0.000  -0.001  -0.100  -0.000   0.000
 -0.001   0.000   0.000   1.510  -0.001   0.000  -0.102   0.000
 -0.002   0.000  -0.001  -0.001   1.423   0.000   0.000  -0.101
  0.001  -0.000  -0.100   0.000   0.000   0.007   0.000  -0.000
  0.000   0.000  -0.000  -0.102   0.000   0.000   0.007   0.000
  0.001  -0.000   0.000   0.000  -0.101  -0.000   0.000   0.008
 total augmentation occupancy for first ion, spin component:           2
 -0.045   0.014  -0.019   0.074  -0.016   0.001  -0.002   0.001
  0.014  -0.004  -0.002   0.013  -0.001   0.000  -0.001   0.000
 -0.019  -0.002  -0.016  -0.022  -0.013   0.001   0.000   0.000
  0.074   0.013  -0.022  -0.031  -0.023   0.000   0.001   0.000
 -0.016  -0.001  -0.013  -0.023  -0.018   0.000   0.000   0.001
  0.001   0.000   0.001   0.000   0.000  -0.000   0.000   0.000
 -0.002  -0.001   0.000   0.001   0.000   0.000  -0.000   0.000
  0.001   0.000   0.000   0.000   0.001   0.000   0.000  -0.000


------------------------ aborting loop because EDIFF is reached ----------------------------------------


 


 total charge     
 
# of ion       s       p       d       tot
------------------------------------------
    1        0.405   0.426   0.000   0.831
    2        0.405   0.426   0.000   0.832
    3        0.406   0.430   0.000   0.835
    4        0.406   0.430   0.000   0.835
    5        0.405   0.429   0.000   0.834
    6        0.405   0.429   0.000   0.835
    7        0.405   0.427   0.000   0.832
    8        0.405   0.428   0.000   0.833
    9        0.405   0.429   0.000   0.833
   10        0.405   0.429   0.000   0.834
   11        0.405   0.427   0.000   0.832
   12        0.405   0.427   0.000   0.832
   13        0.405   0.426   0.000   0.830
   14        0.405   0.426   0.000   0.831
   15        0.405   0.429   0.000   0.835
   16        0.406   0.429   0.000   0.834
   17        0.405   0.430   0.000   0.835
   18        0.405   0.430   0.000   0.835
   19        0.336   0.357   5.125   5.819
   20        0.336   0.349   5.138   5.822
   21        0.337   0.358   5.113   5.808
   22        0.336   0.353   5.128   5.817
   23        0.333   0.357   5.127   5.816
   24        0.332   0.356   5.132   5.820
   25        0.335   0.354   5.132   5.820
   26        0.331   0.355   5.132   5.819
   27        0.333   0.359   5.117   5.810
   28        0.330   0.357   5.137   5.824
   29        0.333   0.352   5.140   5.824
   30        0.332   0.352   5.139   5.823
   31        0.335   0.359   5.116   5.810
   32        0.334   0.358   5.119   5.811
   33        0.330   0.351   5.155   5.836
   34        0.332   0.354   5.134   5.821
   35        0.333   0.357   5.123   5.814
   36        0.334   0.355   5.123   5.813
--------------------------------------------------
tot         13.295  14.098  92.329 119.723
 


 magnetization (x)
 
# of ion       s       p       d       tot
------------------------------------------
    1       -0.003  -0.007   0.000  -0.010
    2       -0.003  -0.007   0.000  -0.010
    3        0.000   0.001   0.000   0.001
    4        0.000   0.001   0.000   0.002
    5        0.004   0.009   0.000   0.013
    6        0.004   0.008   0.000   0.012
    7       -0.003  -0.008   0.000  -0.012
    8       -0.003  -0.008   0.000  -0.011
    9        0.000  -0.000   0.000  -0.000
   10        0.000   0.000   0.000   0.000
   11        0.004   0.008   0.000   0.012
   12        0.003   0.007   0.000   0.011
   13       -0.002  -0.002   0.000  -0.003
   14       -0.002  -0.002   0.000  -0.003
   15       -0.000  -0.001   0.000  -0.001
   16        0.000  -0.001   0.000  -0.001
   17        0.002   0.001   0.000   0.003
   18        0.002   0.001   0.000   0.003
   19        0.036   0.029   2.294   2.359
   20        0.027   0.008   2.459   2.495
   21       -0.034  -0.029  -2.556  -2.619
   22       -0.030  -0.009  -2.478  -2.517
   23       -0.017  -0.022  -2.296  -2.336
   24        0.017   0.022   2.260   2.298
   25       -0.020  -0.014  -2.358  -2.393
   26        0.007   0.011   2.275   2.293
   27       -0.015  -0.030  -2.365  -2.410
   28        0.026   0.033   2.125   2.183
   29       -0.009  -0.002  -2.257  -2.268
   30        0.009   0.001   2.262   2.272
   31       -0.027  -0.034  -2.462  -2.523
   32        0.014   0.030   2.389   2.433
   33        0.026   0.032   1.891   1.948
   34       -0.015  -0.028  -2.156  -2.199
   35       -0.017  -0.022  -2.388  -2.427
   36        0.018   0.023   2.426   2.466
--------------------------------------------------
tot         -0.002  -0.001  -0.934  -0.937
 
    FORLOC:  cpu time    0.0283: real time    0.0283
    FORNL :  cpu time   13.3205: real time   14.6855
    STRESS:  cpu time   18.4018: real time   19.1783
    FORCOR:  cpu time    0.2711: real time    0.2713
    OFIELD:  cpu time    0.0016: real time    0.0016

  FORCE on cell =-STRESS in cart. coord.  units (eV):
  Direction    XX          YY          ZZ          XY          YZ          ZX
  --------------------------------------------------------------------------------------
  Alpha Z   532.25743   532.25743   532.25743
  Ewald   -2702.40749 -2702.40749 -3196.26924    -0.00000    -0.00000    -0.00000
  Hartree   722.82295   721.67658   221.34784     0.00274    -0.00000    -0.00000
  E(xc)    -760.87565  -760.61997  -759.77952     0.02306     0.00000     0.00000
  Local     243.63664   246.72678  1270.67635     0.03015     0.00000    -0.00000
  n-local  -110.36965  -109.59351  -118.33392     0.44461    -0.15547    -0.10967
  augment   523.24055   522.23958   512.34365    -0.13371     0.00001     0.00001
  Kinetic  1558.74561  1557.14964  1536.11847    -0.09445     0.69974     0.20423
  Fock        0.00000     0.00000     0.00000     0.00000     0.00000     0.00000
  -------------------------------------------------------------------------------------
  Total       7.05038     7.42903    -1.63895     0.27239     0.00000     0.00000
  in kB      23.86769    25.14954    -5.54836     0.92214     0.00000     0.00000
  external pressure =       14.49 kB  Pullay stress =        0.00 kB


 VOLUME and BASIS-vectors are now :
 -----------------------------------------------------------------------------
  energy-cutoff  :      404.80
  volume of cell :      473.27
      direct lattice vectors                 reciprocal lattice vectors
     8.250148166  0.000000000  0.000000000     0.121209944  0.000000000  0.000000000
     0.000000000  8.250148166  0.000000000     0.000000000  0.121209944  0.000000000
     0.000000000  0.000000000  6.953274261     0.000000000  0.000000000  0.143817137

  length of vectors
     8.250148166  8.250148166  6.953274261     0.121209944  0.121209944  0.143817137


 FORCES acting on ions:
    Electron-Ion                     Ewald-Force                    Non-Local-Force
 -----------------------------------------------------------------------------------------------
   -.956E-01 -.172E+00 -.303E-01   -.239E-08 -.239E-08 0.411E-08   0.580E-01 0.905E-01 -.194E-02
   -.956E-01 -.172E+00 0.303E-01   -.239E-08 -.239E-08 0.411E-08   0.580E-01 0.905E-01 0.194E-02
   0.137E+00 0.107E+00 -.108E+00   -.239E-08 -.802E-09 0.411E-08   -.315E-01 0.269E-01 0.286E-01
   0.137E+00 0.107E+00 0.108E+00   -.239E-08 -.802E-09 0.411E-08   -.315E-01 0.269E-01 -.286E-01
   0.498E-01 0.837E-01 -.128E-01   -.239E-08 0.631E-08 0.411E-08   -.611E-02 -.143E+00 0.410E-01
   0.498E-01 0.837E-01 0.128E-01   -.239E-08 0.631E-08 0.411E-08   -.611E-02 -.143E+00 -.410E-01
   0.112E+00 -.150E+00 -.717E-01   -.802E-09 -.239E-08 0.411E-08   -.947E-01 0.965E-01 -.200E-02
   0.112E+00 -.150E+00 0.717E-01   -.802E-09 -.239E-08 0.411E-08   -.947E-01 0.965E-01 0.200E-02
   0.922E-01 0.331E-01 -.155E-01   -.802E-09 -.802E-09 0.411E-08   -.663E-01 0.605E-02 0.472E-04
   0.922E-01 0.331E-01 0.155E-01   -.802E-09 -.802E-09 0.411E-08   -.663E-01 0.605E-02 -.472E-04
   0.173E+00 0.119E+00 0.199E-01   -.802E-09 0.631E-08 0.411E-08   -.895E-01 -.951E-01 0.188E-01
   0.173E+00 0.119E+00 -.199E-01   -.802E-09 0.631E-08 0.411E-08   -.895E-01 -.951E-01 -.188E-01
   0.628E-02 -.297E-02 0.358E-02   0.631E-08 -.239E-08 0.411E-08   0.695E-02 -.163E-02 -.326E-01
   0.628E-02 -.297E-02 -.358E-02   0.631E-08 -.239E-08 0.411E-08   0.695E-02 -.163E-02 0.326E-01
   -.266E+00 -.167E+00 0.142E-01   0.631E-08 -.802E-09 0.411E-08   0.126E+00 0.874E-01 0.664E-02
   -.266E+00 -.167E+00 -.142E-01   0.631E-08 -.802E-09 0.411E-08   0.126E+00 0.874E-01 -.664E-02
   -.253E+00 0.186E+00 -.145E-02   0.631E-08 0.631E-08 0.411E-08   0.123E+00 -.109E+00 0.320E-01
   -.253E+00 0.186E+00 0.145E-02   0.631E-08 0.631E-08 0.411E-08   0.123E+00 -.109E+00 -.320E-01
   0.172E-01 0.144E+00 -.443E-08   -.169E-07 -.169E-07 -.411E-08   -.714E-01 -.708E-01 0.000E+00
   0.388E-01 -.202E+00 -.224E-10   -.169E-07 -.169E-07 -.411E-08   -.221E-01 0.625E-01 0.000E+00
   0.471E+00 0.476E+00 -.751E-08   -.169E-07 0.802E-09 -.411E-08   -.175E+00 -.271E+00 0.000E+00
   -.508E+00 -.133E+00 0.819E-09   -.169E-07 0.802E-09 -.411E-08   0.193E+00 0.102E+00 0.000E+00
   -.137E+00 -.393E+00 -.493E-08   -.169E-07 0.130E-07 -.411E-08   0.191E+00 0.319E+00 0.000E+00
   -.115E-02 0.116E+00 -.101E-08   -.169E-07 0.130E-07 -.411E-08   0.513E-01 0.407E-02 0.000E+00
   0.358E+00 0.168E+00 -.235E-08   0.802E-09 -.169E-07 -.411E-08   -.288E+00 -.236E+00 0.000E+00
   0.492E-01 0.189E+00 -.124E-08   0.802E-09 -.169E-07 -.411E-08   -.346E-02 -.232E+00 0.000E+00
   -.569E+00 -.754E-01 -.537E-08   0.802E-09 0.802E-09 -.411E-08   0.444E+00 0.928E-01 0.000E+00
   -.336E+00 -.533E-01 -.388E-09   0.802E-09 0.802E-09 -.411E-08   0.266E+00 0.861E-01 0.000E+00
   -.236E-01 -.555E-01 -.253E-08   0.802E-09 0.130E-07 -.411E-08   -.173E-01 0.487E-01 0.000E+00
   -.861E-01 -.177E+00 -.204E-08   0.802E-09 0.130E-07 -.411E-08   0.632E-01 0.246E+00 0.000E+00
   -.319E+00 -.472E+00 -.167E-08   0.130E-07 -.169E-07 -.411E-08   0.111E+00 0.147E+00 0.000E+00
   -.110E+00 -.492E+00 -.154E-08   0.130E-07 -.169E-07 -.411E-08   0.659E-01 0.235E+00 0.000E+00
   0.325E+00 -.654E-01 -.450E-08   0.130E-07 0.802E-09 -.411E-08   -.250E+00 0.134E-01 0.000E+00
   0.674E+00 0.486E-01 -.721E-09   0.130E-07 0.802E-09 -.411E-08   -.301E+00 -.477E-01 0.000E+00
   0.179E+00 0.502E+00 -.187E-08   0.130E-07 0.130E-07 -.411E-08   -.230E+00 -.284E+00 0.000E+00
   0.464E-01 0.467E+00 -.235E-08   0.130E-07 0.130E-07 -.411E-08   -.552E-01 -.205E+00 0.000E+00
 -----------------------------------------------------------------------------------------------
   -.239E-01 0.734E-01 -.804E-07   -.197E-14 0.275E-13 0.265E-14   0.239E-01 -.734E-01 0.000E+00
 
 
 POSITION                                       TOTAL-FORCE (eV/Angst)
 -----------------------------------------------------------------------------------
      0.00000      0.00000      0.00000        -0.043567     -0.089479     -0.031061
      0.00000      0.00000      3.47664        -0.043567     -0.089479      0.031061
      0.00000      2.75005      0.00000         0.107474      0.132760     -0.080937
      0.00000      2.75005      3.47664         0.107474      0.132760      0.080937
      0.00000      5.50010      0.00000         0.043436     -0.047539      0.024772
      0.00000      5.50010      3.47664         0.043436     -0.047539     -0.024772
      2.75005      0.00000      0.00000         0.024963     -0.061840     -0.072563
      2.75005      0.00000      3.47664         0.024963     -0.061840      0.072563
      2.75005      2.75005      0.00000         0.032030      0.039506     -0.014933
      2.75005      2.75005      3.47664         0.032030      0.039506      0.014933
      2.75005      5.50010      0.00000         0.091347      0.032152      0.036679
      2.75005      5.50010      3.47664         0.091347      0.032152     -0.036679
      5.50010      0.00000      0.00000         0.013769     -0.003971     -0.026403
      5.50010      0.00000      3.47664         0.013769     -0.003971      0.026403
      5.50010      2.75005      0.00000        -0.150196     -0.087239      0.020514
      5.50010      2.75005      3.47664        -0.150196     -0.087239     -0.020514
      5.50010      5.50010      0.00000        -0.139935      0.084904      0.028131
      5.50010      5.50010      3.47664        -0.139935      0.084904     -0.028131
      1.37502      1.37502      1.73832        -0.054757      0.077305      0.000000
      1.37502      1.37502      5.21496         0.015417     -0.141610      0.000000
      1.37502      4.12507      1.73832         0.307682      0.214326      0.000000
      1.37502      4.12507      5.21496        -0.327019     -0.036608      0.000000
      1.37502      6.87512      1.73832         0.051869     -0.075740      0.000000
      1.37502      6.87512      5.21496         0.049295      0.117805      0.000000
      4.12507      1.37502      1.73832         0.071375     -0.063625      0.000000
      4.12507      1.37502      5.21496         0.046309     -0.041090      0.000000
      4.12507      4.12507      1.73832        -0.133839      0.016743      0.000000
      4.12507      4.12507      5.21496        -0.076955      0.030702      0.000000
      4.12507      6.87512      1.73832        -0.041171     -0.007768      0.000000
      4.12507      6.87512      5.21496        -0.022535      0.066429      0.000000
      6.87512      1.37502      1.73832        -0.207528     -0.334411      0.000000
      6.87512      1.37502      5.21496        -0.045602     -0.266530      0.000000
      6.87512      4.12507      1.73832         0.083188     -0.055399      0.000000
      6.87512      4.12507      5.21496         0.382765      0.001922      0.000000
      6.87512      6.87512      1.73832        -0.048163      0.227978      0.000000
      6.87512      6.87512      5.21496        -0.008972      0.271064      0.000000
 -----------------------------------------------------------------------------------
    total drift:                                0.000001     -0.000028     -0.000000


--------------------------------------------------------------------------------------------------------



  FREE ENERGIE OF THE ION-ELECTRON SYSTEM (eV)
  ---------------------------------------------------
  free  energy   TOTEN  =      -236.61706180 eV

  energy  without entropy=     -236.63103236  energy(sigma->0) =     -236.62171865
 


--------------------------------------------------------------------------------------------------------


    POTLOK:  cpu time    0.5882: real time    0.5884


--------------------------------------------------------------------------------------------------------


     LOOP+:  cpu time 1149.0104: real time 1206.7013
    4ORBIT:  cpu time    0.0000: real time    0.0000
 


 total charge     
 
# of ion       s       p       d       tot
------------------------------------------
    1        0.405   0.426   0.000   0.831
    2        0.405   0.426   0.000   0.832
    3        0.406   0.430   0.000   0.835
    4        0.406   0.430   0.000   0.835
    5        0.405   0.429   0.000   0.834
    6        0.405   0.429   0.000   0.835
    7        0.405   0.427   0.000   0.832
    8        0.405   0.428   0.000   0.833
    9        0.405   0.429   0.000   0.833
   10        0.405   0.429   0.000   0.834
   11        0.405   0.427   0.000   0.832
   12        0.405   0.427   0.000   0.832
   13        0.405   0.426   0.000   0.830
   14        0.405   0.426   0.000   0.831
   15        0.405   0.429   0.000   0.835
   16        0.406   0.429   0.000   0.834
   17        0.405   0.430   0.000   0.835
   18        0.405   0.430   0.000   0.835
   19        0.336   0.357   5.125   5.819
   20        0.336   0.349   5.138   5.822
   21        0.337   0.358   5.113   5.808
   22        0.336   0.353   5.128   5.817
   23        0.333   0.357   5.127   5.816
   24        0.332   0.356   5.132   5.820
   25        0.335   0.354   5.132   5.820
   26        0.331   0.355   5.132   5.819
   27        0.333   0.359   5.117   5.810
   28        0.330   0.357   5.137   5.824
   29        0.333   0.352   5.140   5.824
   30        0.332   0.352   5.139   5.823
   31        0.335   0.359   5.116   5.810
   32        0.334   0.358   5.119   5.811
   33        0.330   0.351   5.155   5.836
   34        0.332   0.354   5.134   5.821
   35        0.333   0.357   5.123   5.814
   36        0.334   0.355   5.123   5.813
--------------------------------------------------
tot         13.295  14.098  92.329 119.723
 


 magnetization (x)
 
# of ion       s       p       d       tot
------------------------------------------
    1       -0.003  -0.007   0.000  -0.010
    2       -0.003  -0.007   0.000  -0.010
    3        0.000   0.001   0.000   0.001
    4        0.000   0.001   0.000   0.002
    5        0.004   0.009   0.000   0.013
    6        0.004   0.008   0.000   0.012
    7       -0.003  -0.008   0.000  -0.012
    8       -0.003  -0.008   0.000  -0.011
    9        0.000  -0.000   0.000  -0.000
   10        0.000   0.000   0.000   0.000
   11        0.004   0.008   0.000   0.012
   12        0.003   0.007   0.000   0.011
   13       -0.002  -0.002   0.000  -0.003
   14       -0.002  -0.002   0.000  -0.003
   15       -0.000  -0.001   0.000  -0.001
   16        0.000  -0.001   0.000  -0.001
   17        0.002   0.001   0.000   0.003
   18        0.002   0.001   0.000   0.003
   19        0.036   0.029   2.294   2.359
   20        0.027   0.008   2.459   2.495
   21       -0.034  -0.029  -2.556  -2.619
   22       -0.030  -0.009  -2.478  -2.517
   23       -0.017  -0.022  -2.296  -2.336
   24        0.017   0.022   2.260   2.298
   25       -0.020  -0.014  -2.358  -2.393
   26        0.007   0.011   2.275   2.293
   27       -0.015  -0.030  -2.365  -2.410
   28        0.026   0.033   2.125   2.183
   29       -0.009  -0.002  -2.257  -2.268
   30        0.009   0.001   2.262   2.272
   31       -0.027  -0.034  -2.462  -2.523
   32        0.014   0.030   2.389   2.433
   33        0.026   0.032   1.891   1.948
   34       -0.015  -0.028  -2.156  -2.199
   35       -0.017  -0.022  -2.388  -2.427
   36        0.018   0.023   2.426   2.466
--------------------------------------------------
tot         -0.002  -0.001  -0.934  -0.937
 

 total amount of memory used by VASP MPI-rank0   740218. kBytes
=======================================================================

   base      :      30000. kBytes
   nonl-proj :      34307. kBytes
   fftplans  :      21726. kBytes
   grid      :      14732. kBytes
   one-center:        279. kBytes
   wavefun   :     639174. kBytes
 
  
  
 General timing and accounting informations for this job:
 ========================================================
  
                  Total CPU time used (sec):     1174.383
                            User time (sec):     1152.782
                          System time (sec):       21.602
                         Elapsed time (sec):     1235.862
  
                   Maximum memory used (kb):      882864.
                   Average memory used (kb):           0.
  
                          Minor page faults:       543833
                          Major page faults:           15
                 Voluntary context switches:         5139
