   36   36    1    2
  0.1314651E+02  0.8250148E-09  0.8250148E-09  0.6953274E-09  0.2000000E-15
  1.000000000000000E-004
  CAR 
 AlMn_pv                                 
    180     52    110
 
  0.0000000E+00  0.0000000E+00  0.0000000E+00  0.6666667E-02
    1       -2.521073     -2.515702   1.000000   1.000000
    2       -0.376479     -0.360313   1.000000   1.000000
    3       -0.351724     -0.346398   1.000000   1.000000
    4       -0.340787     -0.321220   1.000000   1.000000
    5       -0.283065     -0.301629   1.000000   1.000000
    6       -0.118161     -0.116340   1.000000   1.000000
    7        1.359563      1.373349   1.000000   1.000000
    8        1.372829      1.384627   1.000000   1.000000
    9        1.382468      1.393408   1.000000   1.000000
   10        1.402953      1.405558   1.000000   1.000000
   11        1.423383      1.449082   1.000000   1.000000
   12        1.538661      1.543168   1.000000   1.000000
   13        1.580856      1.590316   1.000000   1.000000
   14        1.589627      1.609382   1.000000   1.000000
   15        1.646084      1.642962   1.000000   1.000000
   16        2.693246      2.742193   1.000000   1.000000
   17        2.771563      2.778238   1.000000   1.000000
   18        2.780215      2.816706   1.000000   1.000000
   19        2.853921      2.870759   1.000000   1.000000
   20        3.452771      3.486861   1.000000   1.000000
   21        3.531446      3.548944   1.000000   1.000000
   22        3.552477      3.558306   1.000000   1.000000
   23        3.625448      3.616732   1.000000   1.000000
   24        4.058477      4.090265   1.000000   1.000000
   25        4.250463      4.279387   1.000000   1.000000
   26        4.279411      4.311767   1.000000   1.000000
   27        4.465946      4.507745   1.000000   1.000000
   28        4.525643      4.556378   1.000000   1.000000
   29        4.545720      4.587784   1.000000   1.000000
   30        4.568842      4.631396   1.000000   1.000000
   31        4.616974      4.686572   1.000000   1.000000
   32        4.626945      4.705886   1.000000   1.000000
   33        4.694115      4.771507   1.000000   1.000000
   34        4.765198      4.836551   1.000000   1.000000
   35        4.796668      4.872614   1.000000   1.000000
   36        4.843309      4.888133   1.000000   1.000000
   37        4.903745      4.927869   1.000000   1.000000
   38        4.969193      4.983770   1.000000   1.000000
   39        5.019090      4.994414   1.000000   1.000000
   40        5.223072      5.212854   1.000000   1.000000
   41        5.244388      5.281667   1.000000   1.000000
   42        5.278105      5.296420   1.000000   1.000000
   43        5.311593      5.358699   1.000000   1.000000
   44        5.327648      5.449387   1.000000   1.000000
   45        5.336404      5.480296   1.000000   1.000000
   46        5.403430      5.489404   1.000000   1.000000
   47        5.479694      5.525535   1.000000   1.000000
   48        5.511203      5.563134   1.000000   1.000000
   49        5.515342      5.603825   1.000000   1.000000
   50        5.583373      5.629800   1.000000   1.000000
   51        5.630642      5.704118   1.000000   1.000000
   52        5.682451      5.747019   1.000000   1.000000
   53        5.684632      5.830737   1.000000   1.000000
   54        5.705048      5.844756   1.000000   1.000000
   55        5.798549      5.965264   1.000000   1.000000
   56        5.856099      6.001931   1.000000   1.000000
   57        5.893960      6.068010   1.000000   1.000000
   58        5.981238      6.120428   1.000000   1.000000
   59        6.136830      6.147351   1.000000   1.000000
   60        6.225223      6.218760   1.000000   1.000000
   61        6.274880      6.254480   1.000000   1.000000
   62        6.304200      6.350191   1.000000   1.000000
   63        6.364937      6.434007   1.000000   1.000000
   64        6.383884      6.442329   1.000000   1.000000
   65        6.451109      6.462249   1.000000   1.000000
   66        6.469009      6.491249   1.000000   1.000000
   67        6.510525      6.523594   1.000000   1.000000
   68        6.526515      6.535487   1.000000   1.000000
   69        6.528101      6.599096   1.000000   1.000000
   70        6.563702      6.668690   1.000000   1.000000
   71        6.632265      6.681607   1.000000   1.000000
   72        6.654504      6.717487   1.000000   1.000000
   73        6.679443      6.728651   1.000000   1.000000
   74        6.703570      6.737939   1.000000   1.000000
   75        6.704975      6.768512   1.000000   1.000000
   76        6.752846      6.891260   1.000000   1.000000
   77        6.823368      6.903218   1.000000   1.000000
   78        6.849147      6.958428   1.000000   1.000000
   79        6.931019      7.064900   1.000000   1.000014
   80        7.060648      7.125202   1.000012   1.000085
   81        7.219370      7.198161   1.000944   1.000575
   82        7.262568      7.315605   1.002402   1.006465
   83        7.316984      7.321278   1.006621   1.007113
   84        7.351810      7.366854   1.011452   1.014136
   85        7.379934      7.414788   1.016744   1.024548
   86        7.501882      7.515649   1.033992   1.030524
   87        7.522406      7.547495   1.027968   1.012178
   88        7.526714      7.711076   1.026000   0.572786
   89        7.595185      7.729321   0.947464   0.496022
   90        7.717244      7.756058   0.547075   0.384016
   91        7.724797      7.866231   0.515291   0.043820
   92        7.932274      7.934227  -0.027018  -0.027892
   93        7.985424      7.979213  -0.034935  -0.035332
   94        7.986664      8.012850  -0.034836  -0.030918
   95        7.991250      8.052585  -0.034367  -0.022113
   96        8.022138      8.171219  -0.029018  -0.003765
   97        8.146435      8.181799  -0.005896  -0.003076
   98        8.201697      8.266047  -0.002058  -0.000480
   99        8.264074      8.394163  -0.000502  -0.000013
  100        8.393060      8.408949  -0.000014  -0.000008
  101        8.427475      8.458199  -0.000004  -0.000002
  102        8.487836      8.509767  -0.000001  -0.000000
  103        8.505649      8.519983  -0.000000  -0.000000
  104        8.590099      8.590111  -0.000000  -0.000000
  105        8.606605      8.658650  -0.000000  -0.000000
  106        8.674165      8.675105  -0.000000  -0.000000
  107        8.757303      8.795113  -0.000000  -0.000000
  108        8.798642      8.836718  -0.000000  -0.000000
  109        8.848389      8.842777  -0.000000  -0.000000
  110        8.862978      8.921451  -0.000000  -0.000000
 
  0.2000000E+00  0.0000000E+00  0.0000000E+00  0.1333333E-01
    1       -2.430583     -2.425161   1.000000   1.000000
    2       -1.104974     -1.099001   1.000000   1.000000
    3       -0.274839     -0.271360   1.000000   1.000000
    4       -0.235970     -0.227778   1.000000   1.000000
    5       -0.052463     -0.050472   1.000000   1.000000
    6        0.565215      0.571418   1.000000   1.000000
    7        0.884418      0.890806   1.000000   1.000000
    8        0.916238      0.921707   1.000000   1.000000
    9        0.949172      0.955300   1.000000   1.000000
   10        1.422067      1.443539   1.000000   1.000000
   11        1.478987      1.489725   1.000000   1.000000
   12        1.479288      1.491130   1.000000   1.000000
   13        1.917652      1.935173   1.000000   1.000000
   14        2.294836      2.308758   1.000000   1.000000
   15        2.304965      2.334380   1.000000   1.000000
   16        2.330458      2.338611   1.000000   1.000000
   17        2.340773      2.356833   1.000000   1.000000
   18        2.819104      2.830870   1.000000   1.000000
   19        3.207523      3.237653   1.000000   1.000000
   20        3.269725      3.308077   1.000000   1.000000
   21        3.573534      3.583691   1.000000   1.000000
   22        3.638804      3.654973   1.000000   1.000000
   23        3.732427      3.748357   1.000000   1.000000
   24        4.040671      4.071071   1.000000   1.000000
   25        4.181849      4.207569   1.000000   1.000000
   26        4.264023      4.291790   1.000000   1.000000
   27        4.303930      4.316114   1.000000   1.000000
   28        4.410350      4.470922   1.000000   1.000000
   29        4.506585      4.594784   1.000000   1.000000
   30        4.527456      4.594897   1.000000   1.000000
   31        4.573699      4.615187   1.000000   1.000000
   32        4.580665      4.652024   1.000000   1.000000
   33        4.641804      4.671944   1.000000   1.000000
   34        4.703194      4.738008   1.000000   1.000000
   35        4.841598      4.881149   1.000000   1.000000
   36        4.878055      4.926695   1.000000   1.000000
   37        4.990424      5.011006   1.000000   1.000000
   38        5.014526      5.022847   1.000000   1.000000
   39        5.056685      5.089587   1.000000   1.000000
   40        5.066264      5.100938   1.000000   1.000000
   41        5.139085      5.153635   1.000000   1.000000
   42        5.260600      5.292390   1.000000   1.000000
   43        5.276374      5.316716   1.000000   1.000000
   44        5.302275      5.365551   1.000000   1.000000
   45        5.336908      5.453883   1.000000   1.000000
   46        5.351401      5.461797   1.000000   1.000000
   47        5.480913      5.550272   1.000000   1.000000
   48        5.482743      5.594126   1.000000   1.000000
   49        5.571040      5.600255   1.000000   1.000000
   50        5.612346      5.692948   1.000000   1.000000
   51        5.622542      5.762714   1.000000   1.000000
   52        5.680570      5.827685   1.000000   1.000000
   53        5.741338      5.879683   1.000000   1.000000
   54        5.796199      5.935540   1.000000   1.000000
   55        5.817978      5.968113   1.000000   1.000000
   56        5.909680      5.977086   1.000000   1.000000
   57        5.964673      6.052651   1.000000   1.000000
   58        5.969696      6.128871   1.000000   1.000000
   59        6.150134      6.193536   1.000000   1.000000
   60        6.205542      6.207934   1.000000   1.000000
   61        6.268548      6.267317   1.000000   1.000000
   62        6.272253      6.322312   1.000000   1.000000
   63        6.314494      6.394638   1.000000   1.000000
   64        6.377077      6.412095   1.000000   1.000000
   65        6.394852      6.438685   1.000000   1.000000
   66        6.398186      6.458369   1.000000   1.000000
   67        6.460006      6.487488   1.000000   1.000000
   68        6.541556      6.554100   1.000000   1.000000
   69        6.555760      6.557452   1.000000   1.000000
   70        6.609172      6.651404   1.000000   1.000000
   71        6.610861      6.678576   1.000000   1.000000
   72        6.657686      6.690537   1.000000   1.000000
   73        6.689312      6.720473   1.000000   1.000000
   74        6.693418      6.749659   1.000000   1.000000
   75        6.708554      6.787588   1.000000   1.000000
   76        6.724056      6.803930   1.000000   1.000000
   77        6.797198      6.888111   1.000000   1.000000
   78        6.873480      7.010738   1.000000   1.000002
   79        6.919206      7.018984   1.000000   1.000003
   80        6.966036      7.094921   1.000000   1.000036
   81        7.104756      7.139554   1.000048   1.000127
   82        7.255862      7.249457   1.002092   1.001830
   83        7.261721      7.302018   1.002359   1.005102
   84        7.378673      7.387109   1.016482   1.018270
   85        7.378833      7.411317   1.016515   1.023742
   86        7.492484      7.489490   1.035130   1.035311
   87        7.499580      7.497427   1.034339   1.034625
   88        7.536913      7.732951   1.020145   0.480494
   89        7.595292      7.739600   0.947300   0.452563
   90        7.635211      7.809630   0.850805   0.185668
   91        7.873613      7.863072   0.031353   0.049635
   92        7.933199      7.964246  -0.027425  -0.035119
   93        7.967009      7.989018  -0.035300  -0.034608
   94        8.034995      8.042797  -0.026153  -0.024350
   95        8.039848      8.069893  -0.025046  -0.018232
   96        8.052908      8.159860  -0.022028  -0.004654
   97        8.158113      8.254035  -0.004803  -0.000641
   98        8.177745      8.283432  -0.003326  -0.000310
   99        8.235789      8.323598  -0.000980  -0.000107
  100        8.331862      8.358558  -0.000084  -0.000039
  101        8.348016      8.367729  -0.000053  -0.000030
  102        8.411484      8.453366  -0.000008  -0.000002
  103        8.513693      8.513229  -0.000000  -0.000000
  104        8.546480      8.584497  -0.000000  -0.000000
  105        8.621268      8.643536  -0.000000  -0.000000
  106        8.756578      8.767277  -0.000000  -0.000000
  107        8.791807      8.770978  -0.000000  -0.000000
  108        8.842041      8.931144  -0.000000  -0.000000
  109        8.887878      8.936606  -0.000000  -0.000000
  110        8.968045      8.964802  -0.000000  -0.000000
 
  0.4000000E+00  0.0000000E+00  0.0000000E+00  0.1333333E-01
    1       -2.160968     -2.155225   1.000000   1.000000
    2       -1.715253     -1.710078   1.000000   1.000000
    3       -0.029226     -0.025391   1.000000   1.000000
    4        0.007430      0.016511   1.000000   1.000000
    5        0.142346      0.144657   1.000000   1.000000
    6        0.374067      0.378568   1.000000   1.000000
    7        0.411088      0.417377   1.000000   1.000000
    8        0.459619      0.464343   1.000000   1.000000
    9        1.579257      1.584984   1.000000   1.000000
   10        1.603013      1.626590   1.000000   1.000000
   11        1.659464      1.673549   1.000000   1.000000
   12        1.757923      1.770236   1.000000   1.000000
   13        1.915174      1.937815   1.000000   1.000000
   14        1.957548      1.970898   1.000000   1.000000
   15        2.216929      2.227144   1.000000   1.000000
   16        2.325249      2.349578   1.000000   1.000000
   17        2.676212      2.684644   1.000000   1.000000
   18        2.923520      2.939719   1.000000   1.000000
   19        3.015982      3.034294   1.000000   1.000000
   20        3.530787      3.572501   1.000000   1.000000
   21        3.698694      3.748394   1.000000   1.000000
   22        3.750827      3.767257   1.000000   1.000000
   23        3.792064      3.811113   1.000000   1.000000
   24        3.962161      3.987999   1.000000   1.000000
   25        4.039310      4.052707   1.000000   1.000000
   26        4.115330      4.149669   1.000000   1.000000
   27        4.182738      4.224725   1.000000   1.000000
   28        4.244369      4.259283   1.000000   1.000000
   29        4.292989      4.339189   1.000000   1.000000
   30        4.411962      4.485271   1.000000   1.000000
   31        4.448982      4.494046   1.000000   1.000000
   32        4.545305      4.557132   1.000000   1.000000
   33        4.669418      4.675501   1.000000   1.000000
   34        4.710774      4.775233   1.000000   1.000000
   35        4.819599      4.878653   1.000000   1.000000
   36        4.861743      4.913984   1.000000   1.000000
   37        5.022880      5.012803   1.000000   1.000000
   38        5.040849      5.093842   1.000000   1.000000
   39        5.069818      5.104291   1.000000   1.000000
   40        5.126914      5.134569   1.000000   1.000000
   41        5.154120      5.204491   1.000000   1.000000
   42        5.182226      5.225717   1.000000   1.000000
   43        5.297188      5.321614   1.000000   1.000000
   44        5.333690      5.331947   1.000000   1.000000
   45        5.344057      5.459968   1.000000   1.000000
   46        5.375032      5.466523   1.000000   1.000000
   47        5.423577      5.586298   1.000000   1.000000
   48        5.433274      5.588008   1.000000   1.000000
   49        5.562596      5.649204   1.000000   1.000000
   50        5.643255      5.710764   1.000000   1.000000
   51        5.664218      5.792334   1.000000   1.000000
   52        5.676597      5.810886   1.000000   1.000000
   53        5.746335      5.861947   1.000000   1.000000
   54        5.811784      5.937955   1.000000   1.000000
   55        5.907100      5.967442   1.000000   1.000000
   56        5.919510      6.032929   1.000000   1.000000
   57        5.963906      6.118281   1.000000   1.000000
   58        6.058202      6.172496   1.000000   1.000000
   59        6.110251      6.178331   1.000000   1.000000
   60        6.171127      6.218111   1.000000   1.000000
   61        6.177792      6.223506   1.000000   1.000000
   62        6.205006      6.274438   1.000000   1.000000
   63        6.299778      6.284243   1.000000   1.000000
   64        6.321138      6.361290   1.000000   1.000000
   65        6.360869      6.395387   1.000000   1.000000
   66        6.372767      6.428472   1.000000   1.000000
   67        6.388076      6.432457   1.000000   1.000000
   68        6.447852      6.499021   1.000000   1.000000
   69        6.551887      6.541137   1.000000   1.000000
   70        6.573111      6.567092   1.000000   1.000000
   71        6.602239      6.664294   1.000000   1.000000
   72        6.634201      6.670615   1.000000   1.000000
   73        6.690432      6.698725   1.000000   1.000000
   74        6.703107      6.750895   1.000000   1.000000
   75        6.704303      6.779994   1.000000   1.000000
   76        6.773171      6.823546   1.000000   1.000000
   77        6.802361      6.925296   1.000000   1.000000
   78        6.819901      7.017999   1.000000   1.000003
   79        6.955091      7.066588   1.000000   1.000015
   80        7.020441      7.073251   1.000003   1.000018
   81        7.069811      7.101163   1.000017   1.000043
   82        7.174847      7.185803   1.000323   1.000425
   83        7.188436      7.234700   1.000453   1.001332
   84        7.349077      7.330180   1.011008   1.008230
   85        7.371088      7.392894   1.014953   1.019539
   86        7.483580      7.508715   1.035458   1.032540
   87        7.552327      7.590187   1.007814   0.956679
   88        7.560359      7.744766   0.999585   0.430609
   89        7.611502      7.805541   0.913191   0.198894
   90        7.699567      7.851404   0.620583   0.073194
   91        7.848195      7.890340   0.080400   0.007488
   92        7.902797      7.895397  -0.006298   0.001479
   93        7.912398      7.981478  -0.014719  -0.035216
   94        7.964074      8.044228  -0.035103  -0.024033
   95        8.078170      8.101920  -0.016467  -0.011971
   96        8.083405      8.149269  -0.015391  -0.005623
   97        8.101556      8.156816  -0.012025  -0.004919
   98        8.190366      8.226460  -0.002596  -0.001209
   99        8.206019      8.263626  -0.001879  -0.000508
  100        8.292140      8.313387  -0.000248  -0.000141
  101        8.305140      8.326719  -0.000176  -0.000098
  102        8.377763      8.391350  -0.000022  -0.000014
  103        8.402709      8.393659  -0.000010  -0.000013
  104        8.484341      8.545470  -0.000001  -0.000000
  105        8.655088      8.656906  -0.000000  -0.000000
  106        8.690102      8.693316  -0.000000  -0.000000
  107        8.752717      8.804538  -0.000000  -0.000000
  108        8.928252      8.940956  -0.000000  -0.000000
  109        9.023393      8.970182  -0.000000  -0.000000
  110        9.069621      9.064793  -0.000000  -0.000000
 
  0.0000000E+00  0.2000000E+00  0.0000000E+00  0.1333333E-01
    1       -2.430552     -2.425202   1.000000   1.000000
    2       -1.105057     -1.098921   1.000000   1.000000
    3       -0.276360     -0.261183   1.000000   1.000000
    4       -0.234343     -0.238372   1.000000   1.000000
    5       -0.052549     -0.050354   1.000000   1.000000
    6        0.565312      0.571457   1.000000   1.000000
    7        0.882848      0.892042   1.000000   1.000000
    8        0.916926      0.929459   1.000000   1.000000
    9        0.948406      0.948089   1.000000   1.000000
   10        1.440843      1.443707   1.000000   1.000000
   11        1.464582      1.485039   1.000000   1.000000
   12        1.479053      1.489547   1.000000   1.000000
   13        1.914220      1.940804   1.000000   1.000000
   14        2.305214      2.305788   1.000000   1.000000
   15        2.314801      2.327846   1.000000   1.000000
   16        2.319413      2.340761   1.000000   1.000000
   17        2.334110      2.363671   1.000000   1.000000
   18        2.818914      2.832276   1.000000   1.000000
   19        3.211492      3.256137   1.000000   1.000000
   20        3.256849      3.284599   1.000000   1.000000
   21        3.570274      3.595989   1.000000   1.000000
   22        3.639149      3.637297   1.000000   1.000000
   23        3.734768      3.748461   1.000000   1.000000
   24        4.040665      4.069662   1.000000   1.000000
   25        4.187578      4.212309   1.000000   1.000000
   26        4.264482      4.283074   1.000000   1.000000
   27        4.307421      4.329633   1.000000   1.000000
   28        4.389477      4.463583   1.000000   1.000000
   29        4.501295      4.580253   1.000000   1.000000
   30        4.516258      4.601422   1.000000   1.000000
   31        4.568475      4.629376   1.000000   1.000000
   32        4.592859      4.656130   1.000000   1.000000
   33        4.665285      4.689559   1.000000   1.000000
   34        4.735135      4.717496   1.000000   1.000000
   35        4.835541      4.863502   1.000000   1.000000
   36        4.858397      4.907719   1.000000   1.000000
   37        4.994521      5.010713   1.000000   1.000000
   38        5.001289      5.045433   1.000000   1.000000
   39        5.054968      5.091531   1.000000   1.000000
   40        5.060177      5.095055   1.000000   1.000000
   41        5.132424      5.169852   1.000000   1.000000
   42        5.274625      5.308972   1.000000   1.000000
   43        5.276603      5.312802   1.000000   1.000000
   44        5.311147      5.441051   1.000000   1.000000
   45        5.351317      5.493231   1.000000   1.000000
   46        5.416614      5.517265   1.000000   1.000000
   47        5.496154      5.517725   1.000000   1.000000
   48        5.498286      5.568246   1.000000   1.000000
   49        5.537021      5.613789   1.000000   1.000000
   50        5.576083      5.703885   1.000000   1.000000
   51        5.670671      5.734646   1.000000   1.000000
   52        5.678008      5.820911   1.000000   1.000000
   53        5.752872      5.849027   1.000000   1.000000
   54        5.811210      5.882392   1.000000   1.000000
   55        5.828225      5.931003   1.000000   1.000000
   56        5.865658      5.973668   1.000000   1.000000
   57        5.898580      6.058574   1.000000   1.000000
   58        5.986928      6.119750   1.000000   1.000000
   59        6.137907      6.192935   1.000000   1.000000
   60        6.213955      6.201198   1.000000   1.000000
   61        6.256499      6.252666   1.000000   1.000000
   62        6.257348      6.309059   1.000000   1.000000
   63        6.328946      6.376583   1.000000   1.000000
   64        6.351124      6.387591   1.000000   1.000000
   65        6.386207      6.403586   1.000000   1.000000
   66        6.403502      6.474438   1.000000   1.000000
   67        6.423300      6.476198   1.000000   1.000000
   68        6.471657      6.509263   1.000000   1.000000
   69        6.523474      6.565994   1.000000   1.000000
   70        6.555819      6.607511   1.000000   1.000000
   71        6.610145      6.671211   1.000000   1.000000
   72        6.633357      6.674530   1.000000   1.000000
   73        6.667468      6.735081   1.000000   1.000000
   74        6.697412      6.756570   1.000000   1.000000
   75        6.769485      6.782215   1.000000   1.000000
   76        6.803545      6.907352   1.000000   1.000000
   77        6.828175      6.916160   1.000000   1.000000
   78        6.875007      7.000572   1.000000   1.000002
   79        6.885506      7.033114   1.000000   1.000005
   80        7.044119      7.089451   1.000007   1.000030
   81        7.119257      7.183332   1.000072   1.000399
   82        7.188227      7.253868   1.000451   1.002007
   83        7.329508      7.373474   1.008140   1.015424
   84        7.373730      7.378538   1.015477   1.016456
   85        7.396076      7.443333   1.020248   1.030813
   86        7.502054      7.516405   1.033969   1.030288
   87        7.507256      7.525632   1.032901   1.026481
   88        7.519666      7.694943   1.029069   0.639226
   89        7.594753      7.761181   0.948379   0.363262
   90        7.725370      7.789206   0.512748   0.255345
   91        7.861857      7.850230   0.052075   0.075763
   92        7.933054      7.942189  -0.027406  -0.030881
   93        7.954844      8.013214  -0.033967  -0.030862
   94        8.022434      8.042839  -0.028959  -0.024342
   95        8.050780      8.077089  -0.022507  -0.016694
   96        8.067564      8.146780  -0.018723  -0.005876
   97        8.098000      8.214095  -0.012659  -0.001584
   98        8.191970      8.249720  -0.002511  -0.000710
   99        8.262644      8.338128  -0.000520  -0.000071
  100        8.378785      8.381021  -0.000021  -0.000020
  101        8.426070      8.442391  -0.000005  -0.000003
  102        8.429957      8.480015  -0.000004  -0.000001
  103        8.520776      8.526678  -0.000000  -0.000000
  104        8.531884      8.598394  -0.000000  -0.000000
  105        8.549096      8.625703  -0.000000  -0.000000
  106        8.686791      8.672377  -0.000000  -0.000000
  107        8.722332      8.759702  -0.000000  -0.000000
  108        8.787294      8.764124  -0.000000  -0.000000
  109        8.898330      8.929307  -0.000000  -0.000000
  110        8.916476      8.945406  -0.000000  -0.000000
 
  0.2000000E+00  0.2000000E+00  0.0000000E+00  0.1333333E-01
    1       -2.340317     -2.334932   1.000000   1.000000
    2       -1.045284     -1.022451   1.000000   1.000000
    3       -0.991379     -1.003623   1.000000   1.000000
    4        0.013059      0.015406   1.000000   1.000000
    5        0.222228      0.230497   1.000000   1.000000
    6        0.620387      0.642643   1.000000   1.000000
    7        0.673506      0.661480   1.000000   1.000000
    8        0.934922      0.931237   1.000000   1.000000
    9        0.960093      0.981850   1.000000   1.000000
   10        1.572956      1.582515   1.000000   1.000000
   11        1.699552      1.709974   1.000000   1.000000
   12        1.791497      1.796230   1.000000   1.000000
   13        1.824745      1.843164   1.000000   1.000000
   14        1.971314      1.995356   1.000000   1.000000
   15        2.012553      2.027017   1.000000   1.000000
   16        2.752509      2.800531   1.000000   1.000000
   17        2.837129      2.866813   1.000000   1.000000
   18        2.865682      2.884869   1.000000   1.000000
   19        2.887004      2.903208   1.000000   1.000000
   20        2.967739      2.959154   1.000000   1.000000
   21        3.631226      3.673357   1.000000   1.000000
   22        3.773061      3.784445   1.000000   1.000000
   23        3.780249      3.805155   1.000000   1.000000
   24        3.846265      3.859876   1.000000   1.000000
   25        4.104630      4.139813   1.000000   1.000000
   26        4.200311      4.290133   1.000000   1.000000
   27        4.322018      4.352024   1.000000   1.000000
   28        4.378691      4.374243   1.000000   1.000000
   29        4.392916      4.406618   1.000000   1.000000
   30        4.450101      4.514278   1.000000   1.000000
   31        4.543451      4.532537   1.000000   1.000000
   32        4.558524      4.634301   1.000000   1.000000
   33        4.570810      4.689989   1.000000   1.000000
   34        4.807386      4.804702   1.000000   1.000000
   35        4.830084      4.850485   1.000000   1.000000
   36        4.876634      4.920142   1.000000   1.000000
   37        4.891204      4.920770   1.000000   1.000000
   38        4.930667      4.959369   1.000000   1.000000
   39        5.046354      5.086039   1.000000   1.000000
   40        5.083172      5.151536   1.000000   1.000000
   41        5.203064      5.229904   1.000000   1.000000
   42        5.209751      5.257261   1.000000   1.000000
   43        5.304502      5.335175   1.000000   1.000000
   44        5.304626      5.417791   1.000000   1.000000
   45        5.375325      5.483065   1.000000   1.000000
   46        5.404354      5.511575   1.000000   1.000000
   47        5.500600      5.547076   1.000000   1.000000
   48        5.532701      5.607569   1.000000   1.000000
   49        5.609004      5.674438   1.000000   1.000000
   50        5.615164      5.726315   1.000000   1.000000
   51        5.709627      5.772091   1.000000   1.000000
   52        5.714501      5.874776   1.000000   1.000000
   53        5.743901      5.913337   1.000000   1.000000
   54        5.810241      5.917566   1.000000   1.000000
   55        5.837559      5.940893   1.000000   1.000000
   56        5.866526      5.959736   1.000000   1.000000
   57        5.976359      6.044285   1.000000   1.000000
   58        5.980715      6.108555   1.000000   1.000000
   59        6.128676      6.200228   1.000000   1.000000
   60        6.157544      6.224165   1.000000   1.000000
   61        6.244147      6.277262   1.000000   1.000000
   62        6.245558      6.295423   1.000000   1.000000
   63        6.293050      6.322618   1.000000   1.000000
   64        6.327148      6.383411   1.000000   1.000000
   65        6.398442      6.409945   1.000000   1.000000
   66        6.426405      6.449723   1.000000   1.000000
   67        6.428023      6.489137   1.000000   1.000000
   68        6.476145      6.500525   1.000000   1.000000