       N       E                     dE             d eps       ncg     rms          ort
DAV:   1     0.135222947216E+04    0.13522E+04   -0.58478E+04  5720   0.144E+03
DAV:   2    -0.562539572404E+02   -0.14085E+04   -0.13790E+04  5720   0.446E+02
DAV:   3    -0.237331377157E+03   -0.18108E+03   -0.16402E+03  5720   0.172E+02
DAV:   4    -0.266184219710E+03   -0.28853E+02   -0.25909E+02  5720   0.746E+01
DAV:   5    -0.269470900065E+03   -0.32867E+01   -0.31336E+01  5720   0.222E+01
DAV:   6    -0.269756616589E+03   -0.28572E+00   -0.27748E+00  5720   0.571E+00
DAV:   7    -0.269789604545E+03   -0.32988E-01   -0.32394E-01  5720   0.171E+00
DAV:   8    -0.269793246063E+03   -0.36415E-02   -0.35941E-02  5720   0.474E-01
SDA:   9    -0.609349985437E+02    0.20886E+03   -0.35941E-02  5720   0.233E+04 0.000E+00
CGA:  10    -0.207480721512E+03   -0.14655E+03   -0.14677E+03  5720   0.131E+03 0.381E+03
CGA:  11    -0.217237975683E+03   -0.97573E+01   -0.97387E+01  5720   0.625E+02 0.177E+01
CGA:  12    -0.224441937291E+03   -0.72040E+01   -0.71709E+01  5720   0.101E+03-0.197E+00
CGA:  13    -0.232528692398E+03   -0.80868E+01   -0.81923E+01  5720   0.185E+02 0.376E-01
CGA:  14    -0.233639223404E+03   -0.11105E+01   -0.11308E+01  5720   0.696E+01-0.200E+00
CGA:  15    -0.234256754596E+03   -0.61753E+00   -0.62498E+00  5720   0.633E+01-0.328E-01
CGA:  16    -0.235061882930E+03   -0.80513E+00   -0.80480E+00  5720   0.338E+01 0.311E-02
CGA:  17    -0.235272036357E+03   -0.21015E+00   -0.21059E+00  5720   0.151E+01-0.143E-02
CGA:  18    -0.235427526410E+03   -0.15549E+00   -0.15534E+00  5720   0.145E+01 0.664E-04
CGA:  19    -0.235605169151E+03   -0.17764E+00   -0.17777E+00  5720   0.929E+00-0.569E-03
CGA:  20    -0.235673636677E+03   -0.68468E-01   -0.68684E-01  5720   0.424E+00-0.253E-02
CGA:  21    -0.235715489013E+03   -0.41852E-01   -0.41924E-01  5720   0.458E+00-0.296E-03
CGA:  22    -0.235786373023E+03   -0.70884E-01   -0.70883E-01  5720   0.447E+00-0.111E-05
CGA:  23    -0.235817905756E+03   -0.31533E-01   -0.31460E-01  5720   0.188E+00 0.250E-03
CGA:  24    -0.235834954272E+03   -0.17049E-01   -0.17032E-01  5720   0.131E+00-0.184E-03
CGA:  25    -0.235856014722E+03   -0.21060E-01   -0.21073E-01  5720   0.200E+00-0.633E-03
CGA:  26    -0.235873284556E+03   -0.17270E-01   -0.17277E-01  5720   0.118E+00-0.409E-03
CGA:  27    -0.235885814610E+03   -0.12530E-01   -0.12519E-01  5720   0.104E+00-0.238E-03
CGA:  28    -0.235898506063E+03   -0.12691E-01   -0.12692E-01  5720   0.978E-01 0.346E-04
CGA:  29    -0.235906633969E+03   -0.81279E-02   -0.81097E-02  5720   0.450E-01 0.192E-03
CGA:  30    -0.235910785406E+03   -0.41514E-02   -0.41555E-02  5720   0.318E-01 0.135E-03
CGA:  31    -0.235915017935E+03   -0.42325E-02   -0.42325E-02  5720   0.428E-01 0.732E-04
CGA:  32    -0.235919451911E+03   -0.44340E-02   -0.44404E-02  5720   0.287E-01 0.180E-03
CGA:  33    -0.235922470602E+03   -0.30187E-02   -0.30191E-02  5720   0.218E-01 0.906E-04
CGA:  34    -0.235924920808E+03   -0.24502E-02   -0.24542E-02  5720   0.225E-01 0.165E-03
CGA:  35    -0.235927170393E+03   -0.22496E-02   -0.22513E-02  5720   0.134E-01 0.114E-03
CGA:  36    -0.235928532478E+03   -0.13621E-02   -0.13656E-02  5720   0.978E-02 0.115E-03
CGA:  37    -0.235929561970E+03   -0.10295E-02   -0.10308E-02  5720   0.838E-02 0.684E-04
CGA:  38    -0.235930569955E+03   -0.10080E-02   -0.10086E-02  5720   0.760E-02 0.725E-04
CGA:  39    -0.235931377146E+03   -0.80719E-03   -0.80727E-03  5720   0.759E-02 0.191E-04
SDA:  40    -0.235932386639E+03   -0.10095E-02   -0.10086E-02  5720   0.670E-02 0.852E-04
CGA:  41    -0.235932811862E+03   -0.42522E-03   -0.42533E-03  5720   0.426E-02 0.585E-05
CGA:  42    -0.235933206177E+03   -0.39432E-03   -0.39478E-03  5720   0.224E-02 0.105E-04
CGA:  43    -0.235933489554E+03   -0.28338E-03   -0.28342E-03  5720   0.255E-02-0.646E-05
CGA:  44    -0.235933986848E+03   -0.49729E-03   -0.49945E-03  5720   0.226E-02-0.289E-04
CGA:  45    -0.235934225949E+03   -0.23910E-03   -0.23890E-03  5720   0.245E-02-0.128E-04
CGA:  46    -0.235934755042E+03   -0.52909E-03   -0.53196E-03  5720   0.291E-02-0.301E-04
CGA:  47    -0.235935055722E+03   -0.30068E-03   -0.30096E-03  5720   0.248E-02-0.250E-05
CGA:  48    -0.235935429701E+03   -0.37398E-03   -0.37530E-03  5720   0.414E-02-0.400E-04
CGA:  49    -0.235935786471E+03   -0.35677E-03   -0.36056E-03  5720   0.223E-02 0.579E-05
CGA:  50    -0.235936072860E+03   -0.28639E-03   -0.28640E-03  5720   0.345E-02 0.132E-05
CGA:  51    -0.235936760931E+03   -0.68807E-03   -0.68914E-03  5720   0.371E-02 0.941E-05
CGA:  52    -0.235937043705E+03   -0.28277E-03   -0.28814E-03  5720   0.164E-02 0.412E-04
CGA:  53    -0.235937394283E+03   -0.35058E-03   -0.35175E-03  5720   0.513E-02-0.645E-05
CGA:  54    -0.235937843509E+03   -0.44923E-03   -0.46252E-03  5720   0.168E-02 0.123E-03
CGA:  55    -0.235938051202E+03   -0.20769E-03   -0.20833E-03  5720   0.287E-02 0.594E-04
CGA:  56    -0.235938514217E+03   -0.46301E-03   -0.46823E-03  5720   0.438E-02-0.107E-03
CGA:  57    -0.235938794865E+03   -0.28065E-03   -0.29540E-03  5720   0.171E-02-0.617E-05
CGA:  58    -0.235938942727E+03   -0.14786E-03   -0.14998E-03  5720   0.181E-02 0.266E-04
CGA:  59    -0.235939187560E+03   -0.24483E-03   -0.24530E-03  5720   0.284E-02-0.306E-04
CGA:  60    -0.235939410255E+03   -0.22270E-03   -0.22515E-03  5720   0.207E-02 0.122E-04
CGA:  61    -0.235939640030E+03   -0.22978E-03   -0.23132E-03  5720   0.226E-02 0.660E-04
CGA:  62    -0.235939794973E+03   -0.15494E-03   -0.15233E-03  5720   0.123E-02 0.276E-04
CGA:  63    -0.235939971427E+03   -0.17645E-03   -0.17700E-03  5720   0.210E-02-0.196E-04
CGA:  64    -0.235940145201E+03   -0.17377E-03   -0.17604E-03  5720   0.118E-02 0.279E-05
CGA:  65    -0.235940218036E+03   -0.72835E-04   -0.72355E-04  5720   0.501E-03-0.231E-05
CGA:  66    -0.235940290195E+03   -0.72159E-04   -0.72395E-04  5720   0.106E-02-0.834E-05
CGA:  67    -0.235940385728E+03   -0.95533E-04   -0.95592E-04  5720   0.640E-03-0.116E-05
CGA:  68    -0.235940439895E+03   -0.54167E-04   -0.54240E-04  5720   0.599E-03 0.219E-05
CGA:  69    -0.235940504438E+03   -0.64543E-04   -0.64548E-04  5720   0.552E-03 0.186E-05
CGA:  70    -0.235940545272E+03   -0.40834E-04   -0.40884E-04  5720   0.321E-03 0.325E-05
SDA:  71    -0.235940577936E+03   -0.32664E-04   -0.32681E-04  5720   0.340E-03 0.200E-05
CGA:  72    -0.235940600679E+03   -0.22743E-04   -0.22747E-04  5720   0.175E-03 0.244E-06
CGA:  73    -0.235940628324E+03   -0.27646E-04   -0.27539E-04  5720   0.232E-03 0.224E-05
CGA:  74    -0.235940655726E+03   -0.27401E-04   -0.27388E-04  5720   0.163E-03 0.293E-05
CGA:  75    -0.235940692081E+03   -0.36355E-04   -0.35792E-04  5720   0.291E-03 0.539E-05
CGA:  76    -0.235940718528E+03   -0.26446E-04   -0.26526E-04  5720   0.102E-03 0.288E-05
CGA:  77    -0.235940735215E+03   -0.16687E-04   -0.16720E-04  5720   0.168E-03-0.700E-06
CGA:  78    -0.235940759927E+03   -0.24712E-04   -0.24761E-04  5720   0.801E-04-0.165E-05
CGA:  79    -0.235940771910E+03   -0.11983E-04   -0.11964E-04  5720   0.971E-04 0.669E-06
CGA:  80    -0.235940784550E+03   -0.12641E-04   -0.12637E-04  5720   0.711E-04 0.574E-06
CGA:  81    -0.235940795209E+03   -0.10658E-04   -0.10713E-04  5720   0.619E-04-0.194E-05
CGA:  82    -0.235940800620E+03   -0.54114E-05   -0.53618E-05  5720   0.198E-04-0.144E-05
CGA:  83    -0.235940802989E+03   -0.23693E-05   -0.23698E-05  5720   0.300E-04-0.132E-06
CGA:  84    -0.235940807275E+03   -0.42852E-05   -0.42674E-05  5720   0.130E-04 0.814E-06
CGA:  85    -0.235940808590E+03   -0.13154E-05   -0.13204E-05  5720   0.104E-04 0.205E-06
CGA:  86    -0.235940811246E+03   -0.26565E-05   -0.26335E-05  5720   0.738E-05 0.176E-06
CGA:  87    -0.235940811827E+03   -0.58039E-06   -0.58522E-06  5720   0.375E-05 0.101E-06
CGA:  88    -0.235940812522E+03   -0.69540E-06   -0.68227E-06  5720   0.573E-05 0.222E-06
CGA:  89    -0.235940813165E+03   -0.64237E-06   -0.64788E-06  5720   0.225E-05 0.242E-06
CGA:  90    -0.235940813545E+03   -0.38086E-06   -0.38019E-06  5720   0.492E-05 0.233E-07
CGA:  91    -0.235940814179E+03   -0.63351E-06   -0.63232E-06  5720   0.235E-05 0.122E-06
CGA:  92    -0.235940814389E+03   -0.21008E-06   -0.21613E-06  5720   0.140E-05 0.150E-06
CGA:  93    -0.235940814640E+03   -0.25118E-06   -0.23961E-06  5720   0.105E-05 0.323E-06
CGA:  94    -0.235940814776E+03   -0.13586E-06   -0.13701E-06  5720   0.941E-06 0.416E-07
CGA:  95    -0.235940814915E+03   -0.13905E-06   -0.14245E-06  5720   0.803E-06-0.151E-06
CGA:  96    -0.235940814965E+03   -0.49647E-07   -0.49581E-07  5720   0.457E-06 0.109E-07
   1 F= -.23594081E+03 E0= -.23594987E+03  d E =0.271703E-01  mag=     1.2793
