 vasp.5.4.4.18Apr17-6-g9f103f2a35 (build Dec 20 2018 12:05:58) complex          
  
 executed on             LinuxIFC date 2019.06.20  14:19:24
 running on   32 total cores
 distrk:  each k-point on    8 cores,    4 groups
 distr:  one band on NCORES_PER_BAND=   4 cores,    2 groups


--------------------------------------------------------------------------------------------------------


 INCAR:
 POTCAR:    PAW_PBE Al 04Jan2001                  
 POTCAR:    PAW_PBE Mn 06Sep2000                  

 ----------------------------------------------------------------------------- 
|                                                                             |
|           W    W    AA    RRRRR   N    N  II  N    N   GGGG   !!!           |
|           W    W   A  A   R    R  NN   N  II  NN   N  G    G  !!!           |
|           W    W  A    A  R    R  N N  N  II  N N  N  G       !!!           |
|           W WW W  AAAAAA  RRRRR   N  N N  II  N  N N  G  GGG   !            |
|           WW  WW  A    A  R   R   N   NN  II  N   NN  G    G                |
|           W    W  A    A  R    R  N    N  II  N    N   GGGG   !!!           |
|                                                                             |
|      You have enabled k-point parallelism (KPAR>1).                         |
|      This developmental code was originally  written by Paul Kent at ORNL,  |
|      and carefully double checked in Vienna.                                |
|      GW as well as linear response parallelism added by Martijn Marsman     |
|      and Georg Kresse.                                                      |
|      Carefully verify results versus KPAR=1.                                |
|      Report problems to Paul Kent and Vienna.                               |
|                                                                             |
 ----------------------------------------------------------------------------- 

 POTCAR:    PAW_PBE Al 04Jan2001                  
   VRHFIN =Al: s2p1                                                             
   LEXCH  = PE                                                                  
   EATOM  =    53.5387 eV,    3.9350 Ry                                         
                                                                                
   TITEL  = PAW_PBE Al 04Jan2001                                                
   LULTRA =        F    use ultrasoft PP ?                                      
   IUNSCR =        1    unscreen: 0-lin 1-nonlin 2-no                           
   RPACOR =    1.500    partial core radius                                     
   POMASS =   26.981; ZVAL   =    3.000    mass and valenz                      
   RCORE  =    1.900    outmost cutoff radius                                   
   RWIGS  =    2.650; RWIGS  =    1.402    wigner-seitz radius (au A)           
   ENMAX  =  240.300; ENMIN  =  180.225 eV                                      
   ICORE  =        2    local potential                                         
   LCOR   =        T    correct aug charges                                     
   LPAW   =        T    paw PP                                                  
   EAUG   =  291.052                                                            
   DEXC   =    0.000                                                            
   RMAX   =    1.939    core radius for proj-oper                               
   RAUG   =    1.300    factor for augmentation sphere                          
   RDEP   =    1.966    radius for radial grids                                 
   RDEPT  =    1.856    core radius for aug-charge                              
                                                                                
   Atomic configuration                                                         
    6 entries                                                                   
     n  l   j            E        occ.                                          
     1  0  0.50     -1511.1048   2.0000                                         
     2  0  0.50      -108.1629   2.0000                                         
     2  1  1.50       -69.6402   6.0000                                         
     3  0  0.50        -7.7528   2.0000                                         
     3  1  1.50        -2.7121   1.0000                                         
     3  2  2.50        -2.7212   0.0000                                         
   Description                                                                  
     l       E           TYP  RCUT    TYP  RCUT                                 
     0     -7.7528455     23  1.900                                             
     0     -3.3096929     23  1.900                                             
     1     -2.7120682     23  1.900                                             
     1     13.6058260     23  1.900                                             
     2     -2.7211652      7  1.900                                             
  local pseudopotential read in
  partial core-charges read in
  partial kinetic energy density read in
  atomic valenz-charges read in
  non local Contribution for L=           0  read in
    real space projection operators read in
  non local Contribution for L=           0  read in
    real space projection operators read in
  non local Contribution for L=           1  read in
    real space projection operators read in
  non local Contribution for L=           1  read in
    real space projection operators read in
    PAW grid and wavefunctions read in
 
   number of l-projection  operators is LMAX  =           4
   number of lm-projection operators is LMMAX =           8
 
 POTCAR:    PAW_PBE Mn 06Sep2000                  
   VRHFIN =Mn: d6 s1                                                            
   LEXCH  = PE                                                                  
   EATOM  =   416.7541 eV,   30.6306 Ry                                         
                                                                                
   TITEL  = PAW_PBE Mn 06Sep2000                                                
   LULTRA =        F    use ultrasoft PP ?                                      
   IUNSCR =        1    unscreen: 0-lin 1-nonlin 2-no                           
   RPACOR =    2.000    partial core radius                                     
   POMASS =   54.938; ZVAL   =    7.000    mass and valenz                      
   RCORE  =    2.300    outmost cutoff radius                                   
   RWIGS  =    2.500; RWIGS  =    1.323    wigner-seitz radius (au A)           
   ENMAX  =  269.864; ENMIN  =  202.398 eV                                      
   RCLOC  =    1.725    cutoff for local pot                                    
   LCOR   =        T    correct aug charges                                     
   LPAW   =        T    paw PP                                                  
   EAUG   =  500.711                                                            
   DEXC   =    0.000                                                            
   RMAX   =    2.343    core radius for proj-oper                               
   RAUG   =    1.300    factor for augmentation sphere                          
   RDEP   =    2.338    radius for radial grids                                 
   RDEPT  =    1.911    core radius for aug-charge                              
                                                                                
   Atomic configuration                                                         
    9 entries                                                                   
     n  l   j            E        occ.                                          
     1  0  0.50     -6424.8288   2.0000                                         
     2  0  0.50      -739.1154   2.0000                                         
     2  1  1.50      -625.3949   6.0000                                         
     3  0  0.50       -81.6100   2.0000                                         
     3  1  1.50       -50.4667   6.0000                                         
     3  2  2.50        -3.3745   6.0000                                         
     4  0  0.50        -4.1331   1.0000                                         
     4  1  0.50        -4.0817   0.0000                                         
     4  3  2.50        -1.3606   0.0000                                         
   Description                                                                  
     l       E           TYP  RCUT    TYP  RCUT                                 
     2     -3.3744664     23  2.300                                             
     2     -4.7350490     23  2.300                                             
     0     -4.1331408     23  2.300                                             
     0      7.6656614     23  2.300                                             
     1     -2.7211652     23  2.300                                             
     1     20.4087390     23  2.300                                             
  local pseudopotential read in
  partial core-charges read in
  partial kinetic energy density read in
  atomic valenz-charges read in
  non local Contribution for L=           2  read in
    real space projection operators read in
  non local Contribution for L=           2  read in
    real space projection operators read in
  non local Contribution for L=           0  read in
    real space projection operators read in
  non local Contribution for L=           0  read in
    real space projection operators read in
  non local Contribution for L=           1  read in
    real space projection operators read in
  non local Contribution for L=           1  read in
    real space projection operators read in
    PAW grid and wavefunctions read in
 
   number of l-projection  operators is LMAX  =           6
   number of lm-projection operators is LMMAX =          18
 

 ----------------------------------------------------------------------------- 
|                                                                             |
|  ADVICE TO THIS USER RUNNING 'VASP/VAMP'   (HEAR YOUR MASTER'S VOICE ...):  |
|                                                                             |
|      You have a (more or less) 'large supercell' and for larger cells       |
|      it might be more efficient to use real space projection opertators     |
|      So try LREAL= Auto  in the INCAR   file.                               |
|      Mind:          For very  accurate calculation you might also keep the  |
|      reciprocal projection scheme          (i.e. LREAL=.FALSE.)             |
|                                                                             |
 ----------------------------------------------------------------------------- 

  PAW_PBE Al 04Jan2001                  :
 energy of atom  1       EATOM=  -53.5387
 kinetic energy error for atom=    0.0005 (will be added to EATOM!!)
  PAW_PBE Mn 06Sep2000                  :
 energy of atom  2       EATOM= -416.7541
 kinetic energy error for atom=    0.0080 (will be added to EATOM!!)
 
 
 POSCAR: NewRef: 18, @ ['Mn', array([1.37502469, 
  positions in cartesian coordinates
  velocities in cartesian coordinates
  No initial velocities read in
 exchange correlation table for  LEXCH =        8
   RHO(1)=    0.500       N(1)  =     2000
   RHO(2)=  100.500       N(2)  =     4000
 


--------------------------------------------------------------------------------------------------------


 ion  position               nearest neighbor table
   1  0.000  0.000  0.000-  20 2.61  24 2.61  32 2.61  36 2.61  31 2.61  23 2.61  35 2.61  19 2.61
                             3 2.75   7 2.75   5 2.75  13 2.75
   2  0.000  0.000  0.500-  19 2.61  23 2.61  31 2.61  35 2.61  20 2.61  32 2.61  24 2.61  36 2.61
                             4 2.75   8 2.75   6 2.75  14 2.75
   3  0.000  0.333  0.000-  20 2.61  32 2.61  22 2.61  34 2.61  19 2.61  31 2.61  33 2.61  21 2.61
                             9 2.75   1 2.75   5 2.75  15 2.75
   4  0.000  0.333  0.500-  19 2.61  31 2.61  21 2.61  33 2.61  32 2.61  20 2.61  22 2.61  34 2.61
                            10 2.75   2 2.75   6 2.75  16 2.75
   5  0.000  0.667  0.000-  22 2.61  34 2.61  24 2.61  36 2.61  21 2.61  33 2.61  35 2.61  23 2.61
                             3 2.75  11 2.75   1 2.75  17 2.75
   6  0.000  0.667  0.500-  21 2.61  33 2.61  23 2.61  35 2.61  34 2.61  22 2.61  24 2.61  36 2.61
                             4 2.75  12 2.75   2 2.75  18 2.75
   7  0.333  0.000  0.000-  20 2.61  24 2.61  26 2.61  30 2.61  23 2.61  19 2.61  29 2.61  25 2.61
                            13 2.75   1 2.75   9 2.75  11 2.75
   8  0.333  0.000  0.500-  19 2.61  23 2.61  25 2.61  29 2.61  20 2.61  24 2.61  26 2.61  30 2.61
                            14 2.75   2 2.75  10 2.75  12 2.75
   9  0.333  0.333  0.000-  20 2.61  22 2.61  26 2.61  19 2.61  28 2.61  21 2.61  25 2.61  27 2.61
                             3 2.75   7 2.75  11 2.75  15 2.75
  10  0.333  0.333  0.500-  19 2.61  21 2.61  25 2.61  20 2.61  27 2.61  26 2.61  22 2.61  28 2.61
                             4 2.75   8 2.75  12 2.75  16 2.75
  11  0.333  0.667  0.000-  22 2.61  24 2.61  28 2.61  21 2.61  30 2.61  23 2.61  27 2.61  29 2.61
                            17 2.75   5 2.75   9 2.75   7 2.75
  12  0.333  0.667  0.500-  21 2.61  23 2.61  27 2.61  22 2.61  29 2.61  28 2.61  24 2.61  30 2.61
                            18 2.75   6 2.75  10 2.75   8 2.75
  13  0.667  0.000  0.000-  26 2.61  30 2.61  32 2.61  36 2.61  29 2.61  25 2.61  35 2.61  31 2.61
                             7 2.75  15 2.75   1 2.75  17 2.75
  14  0.667  0.000  0.500-  25 2.61  29 2.61  31 2.61  35 2.61  26 2.61  30 2.61  32 2.61  36 2.61
                             8 2.75  16 2.75   2 2.75  18 2.75
  15  0.667  0.333  0.000-  26 2.61  28 2.61  32 2.61  25 2.61  34 2.61  27 2.61  31 2.61  33 2.61
                            17 2.75   9 2.75  13 2.75   3 2.75
  16  0.667  0.333  0.500-  25 2.61  27 2.61  31 2.61  26 2.61  33 2.61  32 2.61  28 2.61  34 2.61
                            18 2.75  10 2.75  14 2.75   4 2.75
  17  0.667  0.667  0.000-  28 2.61  30 2.61  34 2.61  27 2.61  36 2.61  29 2.61  33 2.61  35 2.61
                            11 2.75  15 2.75  13 2.75   5 2.75
  18  0.667  0.667  0.500-  27 2.61  29 2.61  33 2.61  28 2.61  35 2.61  34 2.61  30 2.61  36 2.61
                            12 2.75  16 2.75  14 2.75   6 2.75
  19  0.167  0.167  0.250-  10 2.61   8 2.61   4 2.61   9 2.61   2 2.61   7 2.61   3 2.61   1 2.61
                            21 2.75  25 2.75  23 2.75  31 2.75
  20  0.167  0.167  0.750-   9 2.61   7 2.61   3 2.61  10 2.61   1 2.61   4 2.61   8 2.61   2 2.61
                            22 2.75  26 2.75  24 2.75  32 2.75
  21  0.167  0.500  0.250-  12 2.61  10 2.61   6 2.61  11 2.61   4 2.61   9 2.61   5 2.61   3 2.61
                            19 2.75  23 2.75  27 2.75  33 2.75
  22  0.167  0.500  0.750-  11 2.61   9 2.61   5 2.61  12 2.61   3 2.61   6 2.61  10 2.61   4 2.61
                            20 2.75  24 2.75  28 2.75  34 2.75
  23  0.167  0.833  0.250-   8 2.61  12 2.61   2 2.61   6 2.61  11 2.61   7 2.61   5 2.61   1 2.61
                            21 2.75  29 2.75  19 2.75  35 2.75
  24  0.167  0.833  0.750-   7 2.61  11 2.61   1 2.61   5 2.61   8 2.61  12 2.61   2 2.61   6 2.61
                            22 2.75  30 2.75  20 2.75  36 2.75
  25  0.500  0.167  0.250-  16 2.61  14 2.61  10 2.61  15 2.61   8 2.61  13 2.61   9 2.61   7 2.61
                            19 2.75  27 2.75  31 2.75  29 2.75
  26  0.500  0.167  0.750-  15 2.61  13 2.61   9 2.61  16 2.61   7 2.61  10 2.61  14 2.61   8 2.61
                            20 2.75  28 2.75  32 2.75  30 2.75
  27  0.500  0.500  0.250-  18 2.61  16 2.61  12 2.61  17 2.61  10 2.61  15 2.61  11 2.61   9 2.61
                            21 2.75  25 2.75  29 2.75  33 2.75
  28  0.500  0.500  0.750-  17 2.61  15 2.61  11 2.61  18 2.61   9 2.61  12 2.61  16 2.61  10 2.61
                            22 2.75  26 2.75  30 2.75  34 2.75
  29  0.500  0.833  0.250-  14 2.61  18 2.61   8 2.61  12 2.61  17 2.61  13 2.61  11 2.61   7 2.61
                            23 2.75  27 2.75  35 2.75  25 2.75
  30  0.500  0.833  0.750-  13 2.61  17 2.61   7 2.61  11 2.61  14 2.61  18 2.61   8 2.61  12 2.61
                            24 2.75  28 2.75  36 2.75  26 2.75
  31  0.833  0.167  0.250-   4 2.61  16 2.61  14 2.61   2 2.61  15 2.61   3 2.61  13 2.61   1 2.61
                            25 2.75  33 2.75  19 2.75  35 2.75
  32  0.833  0.167  0.750-   3 2.61  15 2.61  13 2.61   1 2.61   4 2.61  16 2.61   2 2.61  14 2.61
                            26 2.75  34 2.75  20 2.75  36 2.75
  33  0.833  0.500  0.250-   6 2.61  18 2.61  16 2.61   4 2.61  17 2.61   5 2.61  15 2.61   3 2.61
                            27 2.75  31 2.75  35 2.75  21 2.75
  34  0.833  0.500  0.750-   5 2.61  17 2.61  15 2.61   3 2.61   6 2.61  18 2.61   4 2.61  16 2.61
                            28 2.75  32 2.75  36 2.75  22 2.75
  35  0.833  0.833  0.250-   2 2.61   6 2.61  14 2.61  18 2.61  13 2.61   5 2.61  17 2.61   1 2.61
                            29 2.75  33 2.75  31 2.75  23 2.75
  36  0.833  0.833  0.750-   1 2.61   5 2.61  13 2.61  17 2.61   2 2.61  14 2.61   6 2.61  18 2.61
                            30 2.75  34 2.75  32 2.75  24 2.75
 
  LATTYP: Found a simple tetragonal cell.
 ALAT       =     8.2501481662
 C/A-ratio  =     0.8428059861
  
  Lattice vectors:
  
 A1 = (   8.2501481662,   0.0000000000,   0.0000000000)
 A2 = (   0.0000000000,   8.2501481662,   0.0000000000)
 A3 = (   0.0000000000,   0.0000000000,   6.9532742610)


Analysis of symmetry for initial positions (statically):
=====================================================================
 Subroutine PRICEL returns following result:
 
  LATTYP: Found a simple tetragonal cell.
 ALAT       =     2.7500493888
 C/A-ratio  =     1.2642089792
  
  Lattice vectors:
  
 A1 = (   2.7500493888,   0.0000000000,   0.0000000000)
 A2 = (   0.0000000000,   2.7500493888,   0.0000000000)
 A3 = (   0.0000000000,   0.0000000000,   3.4766371305)
 
  18 primitive cells build up your supercell.
 

 Routine SETGRP: Setting up the symmetry group for a 
 simple tetragonal supercell.


 Subroutine GETGRP returns: Found 16 space group operations
 (whereof 16 operations were pure point group operations)
 out of a pool of 16 trial point group operations.


The static configuration has the point symmetry D_4h.


Analysis of symmetry for dynamics (positions and initial velocities):
=====================================================================
 Subroutine PRICEL returns following result:
 
  LATTYP: Found a simple tetragonal cell.
 ALAT       =     2.7500493888
 C/A-ratio  =     1.2642089792
  
  Lattice vectors:
  
 A1 = (   2.7500493888,   0.0000000000,   0.0000000000)
 A2 = (   0.0000000000,   2.7500493888,   0.0000000000)
 A3 = (   0.0000000000,   0.0000000000,   3.4766371305)
 
  18 primitive cells build up your supercell.
 

 Routine SETGRP: Setting up the symmetry group for a 
 simple tetragonal supercell.


 Subroutine GETGRP returns: Found 16 space group operations
 (whereof 16 operations were pure point group operations)
 out of a pool of 16 trial point group operations.


The dynamic configuration has the point symmetry D_4h.


Analysis of structural, dynamic, and magnetic symmetry:
=====================================================================
 Subroutine PRICEL returns:
 Original cell was already a primitive cell.
 

 Routine SETGRP: Setting up the symmetry group for a 
 simple tetragonal supercell.


 Subroutine GETGRP returns: Found  2 space group operations
 (whereof  1 operations were pure point group operations)
 out of a pool of 16 trial point group operations.


The magnetic configuration has the point symmetry C_1 .
 The point group associated with its full space group is C_1h.


 Subroutine INISYM returns: Found  2 space group operations
 (whereof  1 operations are pure point group operations),
 and found     1 'primitive' translations

 
 
 KPOINTS: automatic KPOINTS                       

Automatic generation of k-mesh.
 generate k-points for:    5    5    6
Space group operators:
 irot       det(A)        alpha          n_x          n_y          n_z        tau_x        tau_y        tau_z
    1     1.000000     0.000001     1.000000     0.000000     0.000000     0.000000     0.000000     0.000000
    2    -1.000000   179.999999     0.000000     0.000000     1.000000     0.000000     0.000000     0.500000
 
 Subroutine IBZKPT returns following result:
 ===========================================
 
 Found     52 irreducible k-points:
 
 Following reciprocal coordinates:
            Coordinates               Weight
  0.000000  0.000000  0.000000      1.000000
  0.200000  0.000000  0.000000      2.000000
  0.400000  0.000000  0.000000      2.000000
  0.000000  0.200000  0.000000      2.000000
  0.200000  0.200000  0.000000      2.000000
  0.400000  0.200000  0.000000      2.000000
 -0.400000  0.200000  0.000000      2.000000
 -0.200000  0.200000  0.000000      2.000000
  0.000000  0.400000  0.000000      2.000000
  0.200000  0.400000  0.000000      2.000000
  0.400000  0.400000  0.000000      2.000000
 -0.400000  0.400000  0.000000      2.000000
 -0.200000  0.400000  0.000000      2.000000
  0.000000  0.000000  0.166667      2.000000
  0.200000  0.000000  0.166667      4.000000
  0.400000  0.000000  0.166667      4.000000
  0.000000  0.200000  0.166667      4.000000
  0.200000  0.200000  0.166667      4.000000
  0.400000  0.200000  0.166667      4.000000
 -0.400000  0.200000  0.166667      4.000000
 -0.200000  0.200000  0.166667      4.000000
  0.000000  0.400000  0.166667      4.000000
  0.200000  0.400000  0.166667      4.000000
  0.400000  0.400000  0.166667      4.000000
 -0.400000  0.400000  0.166667      4.000000
 -0.200000  0.400000  0.166667      4.000000
  0.000000  0.000000  0.333333      2.000000
  0.200000  0.000000  0.333333      4.000000
  0.400000  0.000000  0.333333      4.000000
  0.000000  0.200000  0.333333      4.000000
  0.200000  0.200000  0.333333      4.000000
  0.400000  0.200000  0.333333      4.000000
 -0.400000  0.200000  0.333333      4.000000
 -0.200000  0.200000  0.333333      4.000000
  0.000000  0.400000  0.333333      4.000000
  0.200000  0.400000  0.333333      4.000000
  0.400000  0.400000  0.333333      4.000000
 -0.400000  0.400000  0.333333      4.000000
 -0.200000  0.400000  0.333333      4.000000
  0.000000  0.000000  0.500000      1.000000
  0.200000  0.000000  0.500000      2.000000
  0.400000  0.000000  0.500000      2.000000
  0.000000  0.200000  0.500000      2.000000
  0.200000  0.200000  0.500000      2.000000
  0.400000  0.200000  0.500000      2.000000
 -0.400000  0.200000  0.500000      2.000000
 -0.200000  0.200000  0.500000      2.000000
  0.000000  0.400000  0.500000      2.000000
  0.200000  0.400000  0.500000      2.000000
  0.400000  0.400000  0.500000      2.000000
 -0.400000  0.400000  0.500000      2.000000
 -0.200000  0.400000  0.500000      2.000000
 
 Following cartesian coordinates:
            Coordinates               Weight
  0.000000  0.000000  0.000000      1.000000
  0.024242  0.000000  0.000000      2.000000
  0.048484  0.000000  0.000000      2.000000
  0.000000  0.024242  0.000000      2.000000
  0.024242  0.024242  0.000000      2.000000
  0.048484  0.024242  0.000000      2.000000
 -0.048484  0.024242  0.000000      2.000000
 -0.024242  0.024242  0.000000      2.000000
  0.000000  0.048484  0.000000      2.000000
  0.024242  0.048484  0.000000      2.000000
  0.048484  0.048484  0.000000      2.000000
 -0.048484  0.048484  0.000000      2.000000
 -0.024242  0.048484  0.000000      2.000000
  0.000000  0.000000  0.023970      2.000000
  0.024242  0.000000  0.023970      4.000000
  0.048484  0.000000  0.023970      4.000000
  0.000000  0.024242  0.023970      4.000000
  0.024242  0.024242  0.023970      4.000000
  0.048484  0.024242  0.023970      4.000000
 -0.048484  0.024242  0.023970      4.000000
 -0.024242  0.024242  0.023970      4.000000
  0.000000  0.048484  0.023970      4.000000
  0.024242  0.048484  0.023970      4.000000
  0.048484  0.048484  0.023970      4.000000
 -0.048484  0.048484  0.023970      4.000000
 -0.024242  0.048484  0.023970      4.000000
  0.000000  0.000000  0.047939      2.000000
  0.024242  0.000000  0.047939      4.000000
  0.048484  0.000000  0.047939      4.000000
  0.000000  0.024242  0.047939      4.000000
  0.024242  0.024242  0.047939      4.000000
  0.048484  0.024242  0.047939      4.000000
 -0.048484  0.024242  0.047939      4.000000
 -0.024242  0.024242  0.047939      4.000000
  0.000000  0.048484  0.047939      4.000000
  0.024242  0.048484  0.047939      4.000000
  0.048484  0.048484  0.047939      4.000000
 -0.048484  0.048484  0.047939      4.000000
 -0.024242  0.048484  0.047939      4.000000
  0.000000  0.000000  0.071909      1.000000
  0.024242  0.000000  0.071909      2.000000
  0.048484  0.000000  0.071909      2.000000
  0.000000  0.024242  0.071909      2.000000
  0.024242  0.024242  0.071909      2.000000
  0.048484  0.024242  0.071909      2.000000
 -0.048484  0.024242  0.071909      2.000000
 -0.024242  0.024242  0.071909      2.000000
  0.000000  0.048484  0.071909      2.000000
  0.024242  0.048484  0.071909      2.000000
  0.048484  0.048484  0.071909      2.000000
 -0.048484  0.048484  0.071909      2.000000
 -0.024242  0.048484  0.071909      2.000000
 


--------------------------------------------------------------------------------------------------------




 Dimension of arrays:
   k-points           NKPTS =     52   k-points in BZ     NKDIM =     52   number of bands    NBANDS=    110
   number of dos      NEDOS =    301   number of ions     NIONS =     36
   non local maximal  LDIM  =      6   non local SUM 2l+1 LMDIM =     18
   total plane-waves  NPLWV = 139968
   max r-space proj   IRMAX =      1   max aug-charges    IRDMAX=  92271
   dimension x,y,z NGX =    54 NGY =   54 NGZ =   48
   dimension x,y,z NGXF=   108 NGYF=  108 NGZF=   96
   support grid    NGXF=   216 NGYF=  216 NGZF=  192
   ions per type =              18  18
   NGX,Y,Z   is equivalent  to a cutoff of  10.88, 10.88, 11.48 a.u.
   NGXF,Y,Z  is equivalent  to a cutoff of  21.76, 21.76, 22.95 a.u.

 SYSTEM =  AlMn_pv                                 
 POSCAR =  NewRef: 18, @ ['Mn', array([1.37502469, 

 Startparameter for this run:
   NWRITE =      2    write-flag & timer
   PREC   = accura    normal or accurate (medium, high low for compatibility)
   ISTART =      0    job   : 0-new  1-cont  2-samecut
   ICHARG =      2    charge: 1-file 2-atom 10-const
   ISPIN  =      2    spin polarized calculation?
   LNONCOLLINEAR =      F non collinear calculations
   LSORBIT =      F    spin-orbit coupling
   INIWAV =      1    electr: 0-lowe 1-rand  2-diag
   LASPH  =      F    aspherical Exc in radial PAW
   METAGGA=      F    non-selfconsistent MetaGGA calc.

 Electronic Relaxation 1
   ENCUT  =  404.8 eV  29.75 Ry    5.45 a.u.  13.53 13.53 11.41*2*pi/ulx,y,z
   ENINI  =  404.8     initial cutoff
   ENAUG  =  500.7 eV  augmentation charge cutoff
   NELM   =    100;   NELMIN=  4; NELMDL= -8     # of ELM steps 
   EDIFF  = 0.1E-06   stopping-criterion for ELM
   LREAL  =      F    real-space projection
   NLSPLINE    = F    spline interpolate recip. space projectors
   LCOMPAT=      F    compatible to vasp.4.4
   GGA_COMPAT  = T    GGA compatible to vasp.4.4-vasp.4.6
   LMAXPAW     = -100 max onsite density
   LMAXMIX     =    2 max onsite mixed and CHGCAR
   VOSKOWN=      0    Vosko Wilk Nusair interpolation
   ROPT   =    0.00000   0.00000
 Ionic relaxation
   EDIFFG = 0.1E-05   stopping-criterion for IOM
   NSW    =      0    number of steps for IOM
   NBLOCK =      1;   KBLOCK =      1    inner block; outer block 
   IBRION =     -1    ionic relax: 0-MD 1-quasi-New 2-CG
   NFREE  =      0    steps in history (QN), initial steepest desc. (CG)
   ISIF   =      2    stress and relaxation
   IWAVPR =     10    prediction:  0-non 1-charg 2-wave 3-comb
   ISYM   =      2    0-nonsym 1-usesym 2-fastsym
   LCORR  =      T    Harris-Foulkes like correction to forces

   POTIM  = 0.2000    time-step for ionic-motion
   TEIN   =    0.0    initial temperature
   TEBEG  =    0.0;   TEEND  =   0.0 temperature during run
   SMASS  =  -3.00    Nose mass-parameter (am)
   estimated Nose-frequenzy (Omega)   =  0.10E-29 period in steps =****** mass=  -0.156E-26a.u.
   SCALEE = 1.0000    scale energy and forces
   NPACO  =    256;   APACO  = 16.0  distance and # of slots for P.C.
   PSTRESS=    0.0 pullay stress

  Mass of Ions in am
   POMASS =  26.98 54.94
  Ionic Valenz
   ZVAL   =   3.00  7.00
  Atomic Wigner-Seitz radii
   RWIGS  =  -1.00 -1.00
  virtual crystal weights 
   VCA    =   1.00  1.00
   NELECT =     180.0000    total number of electrons
   NUPDOWN=      -1.0000    fix difference up-down

 DOS related values:
   EMIN   =  10.00;   EMAX   =-10.00  energy-range for DOS
   EFERMI =   0.00
   ISMEAR =     1;   SIGMA  =   0.20  broadening in eV -4-tet -1-fermi 0-gaus

 Electronic relaxation 2 (details)
   IALGO  =     58    algorithm
   LDIAG  =      T    sub-space diagonalisation (order eigenvalues)
   LSUBROT=      F    optimize rotation matrix (better conditioning)
   TURBO    =      0    0=normal 1=particle mesh
   IRESTART =      0    0=no restart 2=restart with 2 vectors
   NREBOOT  =      0    no. of reboots
   NMIN     =      0    reboot dimension
   EREF     =   0.00    reference energy to select bands
   IMIX   =      4    mixing-type and parameters
     AMIX     =   0.40;   BMIX     =  1.00
     AMIX_MAG =   1.60;   BMIX_MAG =  1.00
     AMIN     =   0.10
     WC   =   100.;   INIMIX=   1;  MIXPRE=   1;  MAXMIX= -45

 Intra band minimization:
   WEIMIN = 0.0000     energy-eigenvalue tresh-hold
   EBREAK =  0.23E-09  absolut break condition
   DEPER  =   0.30     relativ break condition  

   TIME   =   0.40     timestep for ELM

  volume/ion in A,a.u.               =      13.15        88.72
  Fermi-wavevector in a.u.,A,eV,Ry     =   1.186118  2.241439 19.141722  1.406877
  Thomas-Fermi vector in A             =   2.322298
 
 Write flags
   LWAVE        =      F    write WAVECAR
   LDOWNSAMPLE  =      F    k-point downsampling of WAVECAR
   LCHARG       =      F    write CHGCAR
   LVTOT        =      F    write LOCPOT, total local potential
   LVHAR        =      F    write LOCPOT, Hartree potential only
   LELF         =      F    write electronic localiz. function (ELF)
   LORBIT       =     10    0 simple, 1 ext, 2 COOP (PROOUT), +10 PAW based schemes


 Dipole corrections
   LMONO  =      F    monopole corrections only (constant potential shift)
   LDIPOL =      F    correct potential (dipole corrections)
   IDIPOL =      0    1-x, 2-y, 3-z, 4-all directions 
   EPSILON=  1.0000000 bulk dielectric constant

 Exchange correlation treatment:
   GGA     =    --    GGA type
   LEXCH   =     8    internal setting for exchange type
   VOSKOWN=      0    Vosko Wilk Nusair interpolation
   LHFCALC =     F    Hartree Fock is set to
   LHFONE  =     F    Hartree Fock one center treatment
   AEXX    =    0.0000 exact exchange contribution

 Linear response parameters
   LEPSILON=     F    determine dielectric tensor
   LRPA    =     F    only Hartree local field effects (RPA)
   LNABLA  =     F    use nabla operator in PAW spheres
   LVEL    =     F    velocity operator in full k-point grid
   LINTERFAST=   F  fast interpolation
   KINTER  =     0    interpolate to denser k-point grid
   CSHIFT  =0.1000    complex shift for real part using Kramers Kronig
   OMEGAMAX=  -1.0    maximum frequency
   DEG_THRESHOLD= 0.2000000E-02 threshold for treating states as degnerate
   RTIME   =   -0.100 relaxation time in fs
  (WPLASMAI=    0.000 imaginary part of plasma frequency in eV, 0.658/RTIME)
   DFIELD  = 0.0000000 0.0000000 0.0000000 field for delta impulse in time
 
 Orbital magnetization related:
   ORBITALMAG=     F  switch on orbital magnetization
   LCHIMAG   =     F  perturbation theory with respect to B field
   DQ        =  0.001000  dq finite difference perturbation B field
   LLRAUG    =     F  two centre corrections for induced B field



--------------------------------------------------------------------------------------------------------


 Static calculation
 charge density and potential will be updated during run
 spin polarized calculation
 Conjugate gradient for all bands (Freysoldt, et al. PRB 79, 241103 (2009))
 preconditioned conjugated gradient                                        
 perform sub-space diagonalisation
    before iterative eigenvector-optimisation
 modified Broyden-mixing scheme, WC =      100.0
 initial mixing is a Kerker type mixing with AMIX =  0.4000 and BMIX =      1.0000
 Hartree-type preconditioning will be used
 using additional bands           20
 reciprocal scheme for non local part
 use partial core corrections
 no Harris-corrections to forces 
 use gradient corrections 
 use of overlap-Matrix (Vanderbilt PP)
 Methfessel and Paxton  Order N= 1 SIGMA  =   0.20


--------------------------------------------------------------------------------------------------------


  energy-cutoff  :      404.80
  volume of cell :      473.27
      direct lattice vectors                 reciprocal lattice vectors
     8.250148166  0.000000000  0.000000000     0.121209944  0.000000000  0.000000000
     0.000000000  8.250148166  0.000000000     0.000000000  0.121209944  0.000000000
     0.000000000  0.000000000  6.953274261     0.000000000  0.000000000  0.143817137

  length of vectors
     8.250148166  8.250148166  6.953274261     0.121209944  0.121209944  0.143817137


 
 k-points in units of 2pi/SCALE and weight: automatic KPOINTS                       
   0.00000000  0.00000000  0.00000000       0.007
   0.02424199  0.00000000  0.00000000       0.013
   0.04848398  0.00000000  0.00000000       0.013
   0.00000000  0.02424199  0.00000000       0.013
   0.02424199  0.02424199  0.00000000       0.013
   0.04848398  0.02424199  0.00000000       0.013
  -0.04848398  0.02424199  0.00000000       0.013
  -0.02424199  0.02424199  0.00000000       0.013
   0.00000000  0.04848398  0.00000000       0.013
   0.02424199  0.04848398  0.00000000       0.013
   0.04848398  0.04848398  0.00000000       0.013
  -0.04848398  0.04848398  0.00000000       0.013
  -0.02424199  0.04848398  0.00000000       0.013
   0.00000000  0.00000000  0.02396952       0.013
   0.02424199  0.00000000  0.02396952       0.027
   0.04848398  0.00000000  0.02396952       0.027
   0.00000000  0.02424199  0.02396952       0.027
   0.02424199  0.02424199  0.02396952       0.027
   0.04848398  0.02424199  0.02396952       0.027
  -0.04848398  0.02424199  0.02396952       0.027
  -0.02424199  0.02424199  0.02396952       0.027
   0.00000000  0.04848398  0.02396952       0.027
   0.02424199  0.04848398  0.02396952       0.027
   0.04848398  0.04848398  0.02396952       0.027
  -0.04848398  0.04848398  0.02396952       0.027
  -0.02424199  0.04848398  0.02396952       0.027
   0.00000000  0.00000000  0.04793905       0.013
   0.02424199  0.00000000  0.04793905       0.027
   0.04848398  0.00000000  0.04793905       0.027
   0.00000000  0.02424199  0.04793905       0.027
   0.02424199  0.02424199  0.04793905       0.027
   0.04848398  0.02424199  0.04793905       0.027
  -0.04848398  0.02424199  0.04793905       0.027
  -0.02424199  0.02424199  0.04793905       0.027
   0.00000000  0.04848398  0.04793905       0.027
   0.02424199  0.04848398  0.04793905       0.027
   0.04848398  0.04848398  0.04793905       0.027
  -0.04848398  0.04848398  0.04793905       0.027
  -0.02424199  0.04848398  0.04793905       0.027
   0.00000000  0.00000000  0.07190857       0.007
   0.02424199  0.00000000  0.07190857       0.013
   0.04848398  0.00000000  0.07190857       0.013
   0.00000000  0.02424199  0.07190857       0.013
   0.02424199  0.02424199  0.07190857       0.013
   0.04848398  0.02424199  0.07190857       0.013
  -0.04848398  0.02424199  0.07190857       0.013
  -0.02424199  0.02424199  0.07190857       0.013
   0.00000000  0.04848398  0.07190857       0.013
   0.02424199  0.04848398  0.07190857       0.013
   0.04848398  0.04848398  0.07190857       0.013
  -0.04848398  0.04848398  0.07190857       0.013
  -0.02424199  0.04848398  0.07190857       0.013
 
 k-points in reciprocal lattice and weights: automatic KPOINTS                       
   0.00000000  0.00000000  0.00000000       0.007
   0.20000000  0.00000000  0.00000000       0.013
   0.40000000  0.00000000  0.00000000       0.013
   0.00000000  0.20000000  0.00000000       0.013
   0.20000000  0.20000000  0.00000000       0.013
   0.40000000  0.20000000  0.00000000       0.013
  -0.40000000  0.20000000  0.00000000       0.013
  -0.20000000  0.20000000  0.00000000       0.013
   0.00000000  0.40000000  0.00000000       0.013
   0.20000000  0.40000000  0.00000000       0.013
   0.40000000  0.40000000  0.00000000       0.013
  -0.40000000  0.40000000  0.00000000       0.013
  -0.20000000  0.40000000  0.00000000       0.013
   0.00000000  0.00000000  0.16666667       0.013
   0.20000000  0.00000000  0.16666667       0.027
   0.40000000  0.00000000  0.16666667       0.027
   0.00000000  0.20000000  0.16666667       0.027
   0.20000000  0.20000000  0.16666667       0.027
   0.40000000  0.20000000  0.16666667       0.027
  -0.40000000  0.20000000  0.16666667       0.027
  -0.20000000  0.20000000  0.16666667       0.027
   0.00000000  0.40000000  0.16666667       0.027
   0.20000000  0.40000000  0.16666667       0.027
   0.40000000  0.40000000  0.16666667       0.027
  -0.40000000  0.40000000  0.16666667       0.027
  -0.20000000  0.40000000  0.16666667       0.027
   0.00000000  0.00000000  0.33333333       0.013
   0.20000000  0.00000000  0.33333333       0.027
   0.40000000  0.00000000  0.33333333       0.027
   0.00000000  0.20000000  0.33333333       0.027
   0.20000000  0.20000000  0.33333333       0.027
   0.40000000  0.20000000  0.33333333       0.027
  -0.40000000  0.20000000  0.33333333       0.027
  -0.20000000  0.20000000  0.33333333       0.027
   0.00000000  0.40000000  0.33333333       0.027
   0.20000000  0.40000000  0.33333333       0.027
   0.40000000  0.40000000  0.33333333       0.027
  -0.40000000  0.40000000  0.33333333       0.027
  -0.20000000  0.40000000  0.33333333       0.027
   0.00000000  0.00000000  0.50000000       0.007
   0.20000000  0.00000000  0.50000000       0.013
   0.40000000  0.00000000  0.50000000       0.013
   0.00000000  0.20000000  0.50000000       0.013
   0.20000000  0.20000000  0.50000000       0.013
   0.40000000  0.20000000  0.50000000       0.013
  -0.40000000  0.20000000  0.50000000       0.013
  -0.20000000  0.20000000  0.50000000       0.013
   0.00000000  0.40000000  0.50000000       0.013
   0.20000000  0.40000000  0.50000000       0.013
   0.40000000  0.40000000  0.50000000       0.013
  -0.40000000  0.40000000  0.50000000       0.013
  -0.20000000  0.40000000  0.50000000       0.013
 
 position of ions in fractional coordinates (direct lattice) 
   0.00000000  0.00000000  0.00000000
   0.00000000  0.00000000  0.50000000
   0.00000000  0.33333333  0.00000000
   0.00000000  0.33333333  0.50000000
   0.00000000  0.66666667  0.00000000
   0.00000000  0.66666667  0.50000000
   0.33333333  0.00000000  0.00000000
   0.33333333  0.00000000  0.50000000
   0.33333333  0.33333333  0.00000000
   0.33333333  0.33333333  0.50000000
   0.33333333  0.66666667  0.00000000
   0.33333333  0.66666667  0.50000000
   0.66666667  0.00000000  0.00000000
   0.66666667  0.00000000  0.50000000
   0.66666667  0.33333333  0.00000000
   0.66666667  0.33333333  0.50000000
   0.66666667  0.66666667  0.00000000
   0.66666667  0.66666667  0.50000000
   0.16666667  0.16666667  0.25000000
   0.16666667  0.16666667  0.75000000
   0.16666667  0.50000000  0.25000000
   0.16666667  0.50000000  0.75000000
   0.16666667  0.83333333  0.25000000
   0.16666667  0.83333333  0.75000000
   0.50000000  0.16666667  0.25000000
   0.50000000  0.16666667  0.75000000
   0.50000000  0.50000000  0.25000000
   0.50000000  0.50000000  0.75000000
   0.50000000  0.83333333  0.25000000
   0.50000000  0.83333333  0.75000000
   0.83333333  0.16666667  0.25000000
   0.83333333  0.16666667  0.75000000
   0.83333333  0.50000000  0.25000000
   0.83333333  0.50000000  0.75000000
   0.83333333  0.83333333  0.25000000
   0.83333333  0.83333333  0.75000000
 
 position of ions in cartesian coordinates  (Angst):
   0.00000000  0.00000000  0.00000000
   0.00000000  0.00000000  3.47663713
   0.00000000  2.75004939  0.00000000
   0.00000000  2.75004939  3.47663713
   0.00000000  5.50009878  0.00000000
   0.00000000  5.50009878  3.47663713
   2.75004939  0.00000000  0.00000000
   2.75004939  0.00000000  3.47663713
   2.75004939  2.75004939  0.00000000
   2.75004939  2.75004939  3.47663713
   2.75004939  5.50009878  0.00000000
   2.75004939  5.50009878  3.47663713
   5.50009878  0.00000000  0.00000000
   5.50009878  0.00000000  3.47663713
   5.50009878  2.75004939  0.00000000
   5.50009878  2.75004939  3.47663713
   5.50009878  5.50009878  0.00000000
   5.50009878  5.50009878  3.47663713
   1.37502469  1.37502469  1.73831857
   1.37502469  1.37502469  5.21495570
   1.37502469  4.12507408  1.73831857
   1.37502469  4.12507408  5.21495570
   1.37502469  6.87512347  1.73831857
   1.37502469  6.87512347  5.21495570
   4.12507408  1.37502469  1.73831857
   4.12507408  1.37502469  5.21495570
   4.12507408  4.12507408  1.73831857
   4.12507408  4.12507408  5.21495570
   4.12507408  6.87512347  1.73831857
   4.12507408  6.87512347  5.21495570
   6.87512347  1.37502469  1.73831857
   6.87512347  1.37502469  5.21495570
   6.87512347  4.12507408  1.73831857
   6.87512347  4.12507408  5.21495570
   6.87512347  6.87512347  1.73831857
   6.87512347  6.87512347  5.21495570
 


--------------------------------------------------------------------------------------------------------


 k-point  1 :   0.0000 0.0000 0.0000  plane waves:    8799
 k-point  2 :   0.2000 0.0000 0.0000  plane waves:    8753
 k-point  3 :   0.4000 0.0000 0.0000  plane waves:    8757
 k-point  4 :   0.0000 0.2000 0.0000  plane waves:    8753
 k-point  5 :   0.2000 0.2000 0.0000  plane waves:    8767
 k-point  6 :   0.4000 0.2000 0.0000  plane waves:    8761
 k-point  7 :  -0.4000 0.2000 0.0000  plane waves:    8761
 k-point  8 :  -0.2000 0.2000 0.0000  plane waves:    8767
 k-point  9 :   0.0000 0.4000 0.0000  plane waves:    8757
 k-point 10 :   0.2000 0.4000 0.0000  plane waves:    8761
 k-point 11 :   0.4000 0.4000 0.0000  plane waves:    8731
 k-point 12 :  -0.4000 0.4000 0.0000  plane waves:    8731
 k-point 13 :  -0.2000 0.4000 0.0000  plane waves:    8761
 k-point 14 :   0.0000 0.0000 0.1667  plane waves:    8763
 k-point 15 :   0.2000 0.0000 0.1667  plane waves:    8771
 k-point 16 :   0.4000 0.0000 0.1667  plane waves:    8747
 k-point 17 :   0.0000 0.2000 0.1667  plane waves:    8771
 k-point 18 :   0.2000 0.2000 0.1667  plane waves:    8764
 k-point 19 :   0.4000 0.2000 0.1667  plane waves:    8768
 k-point 20 :  -0.4000 0.2000 0.1667  plane waves:    8768
 k-point 21 :  -0.2000 0.2000 0.1667  plane waves:    8764
 k-point 22 :   0.0000 0.4000 0.1667  plane waves:    8747
 k-point 23 :   0.2000 0.4000 0.1667  plane waves:    8768
 k-point 24 :   0.4000 0.4000 0.1667  plane waves:    8740
 k-point 25 :  -0.4000 0.4000 0.1667  plane waves:    8740
 k-point 26 :  -0.2000 0.4000 0.1667  plane waves:    8768
 k-point 27 :   0.0000 0.0000 0.3333  plane waves:    8743
 k-point 28 :   0.2000 0.0000 0.3333  plane waves:    8736
 k-point 29 :   0.4000 0.0000 0.3333  plane waves:    8753
 k-point 30 :   0.0000 0.2000 0.3333  plane waves:    8736
 k-point 31 :   0.2000 0.2000 0.3333  plane waves:    8753
 k-point 32 :   0.4000 0.2000 0.3333  plane waves:    8743
 k-point 33 :  -0.4000 0.2000 0.3333  plane waves:    8743
 k-point 34 :  -0.2000 0.2000 0.3333  plane waves:    8753
 k-point 35 :   0.0000 0.4000 0.3333  plane waves:    8753
 k-point 36 :   0.2000 0.4000 0.3333  plane waves:    8743
 k-point 37 :   0.4000 0.4000 0.3333  plane waves:    8755
 k-point 38 :  -0.4000 0.4000 0.3333  plane waves:    8755
 k-point 39 :  -0.2000 0.4000 0.3333  plane waves:    8743
 k-point 40 :   0.0000 0.0000 0.5000  plane waves:    8742
 k-point 41 :   0.2000 0.0000 0.5000  plane waves:    8756
 k-point 42 :   0.4000 0.0000 0.5000  plane waves:    8744
 k-point 43 :   0.0000 0.2000 0.5000  plane waves:    8756
 k-point 44 :   0.2000 0.2000 0.5000  plane waves:    8762
 k-point 45 :   0.4000 0.2000 0.5000  plane waves:    8732
 k-point 46 :  -0.4000 0.2000 0.5000  plane waves:    8732
 k-point 47 :  -0.2000 0.2000 0.5000  plane waves:    8762
 k-point 48 :   0.0000 0.4000 0.5000  plane waves:    8744
 k-point 49 :   0.2000 0.4000 0.5000  plane waves:    8732
 k-point 50 :   0.4000 0.4000 0.5000  plane waves:    8736
 k-point 51 :  -0.4000 0.4000 0.5000  plane waves:    8736
 k-point 52 :  -0.2000 0.4000 0.5000  plane waves:    8732

 maximum and minimum number of plane-waves per node :      2210     2164

 maximum number of plane-waves:      8799
 maximum index in each direction: 
   IXMAX=   13   IYMAX=   13   IZMAX=   11
   IXMIN=  -13   IYMIN=  -13   IZMIN=  -11


 parallel 3D FFT for wavefunctions:
    minimum data exchange during FFTs selected (reduces bandwidth)
 parallel 3D FFT for charge:
    minimum data exchange during FFTs selected (reduces bandwidth)


 total amount of memory used by VASP MPI-rank0   740218. kBytes
=======================================================================

   base      :      30000. kBytes
   nonl-proj :      34307. kBytes
   fftplans  :      21726. kBytes
   grid      :      14732. kBytes
   one-center:        279. kBytes
   wavefun   :     639174. kBytes
 
     INWAV:  cpu time    0.0001: real time    0.0000
 Broyden mixing: mesh for mixing (old mesh)
   NGX = 27   NGY = 27   NGZ = 23
  (NGX  =108   NGY  =108   NGZ  = 96)
  gives a total of  16767 points

 initial charge density was supplied:
 charge density of overlapping atoms calculated
 number of electron     180.0000000 magnetization       0.0000000
 keeping initial charge density in first step


--------------------------------------------------------------------------------------------------------


 Maximum index for augmentation-charges        11261 (set IRDMAX)


--------------------------------------------------------------------------------------------------------


 First call to EWALD:  gamma=   0.227
 Maximum number of real-space cells 3x 3x 3
 Maximum number of reciprocal cells 3x 3x 3

    FEWALD:  cpu time    0.0066: real time    0.0066


--------------------------------------- Iteration      1(   1)  ---------------------------------------


    POTLOK:  cpu time    0.2523: real time    0.2528
    SETDIJ:  cpu time    0.3168: real time    0.3173
    TRIAL :  cpu time   18.0951: real time   18.2376
    CORREC:  cpu time    0.0064: real time    0.0074
    --------------------------------------------
      LOOP:  cpu time   18.8865: real time   19.0375

 eigenvalue-minimisations  : 22880
 total energy-change (2. order) : 0.1352229E+04  (-0.5847845E+04)
 number of electron     180.0000000 magnetization       0.0000000
 augmentation part      180.0000000 magnetization       0.0000000

 Free energy of the ion-electron system (eV)
  ---------------------------------------------------
  alpha Z        PSCENC =       532.25742704
  Ewald energy   TEWEN  =     -8601.05107233
  -Hartree energ DENC   =     -1903.73857242
  -exchange      EXHF   =         0.00000000
  -V(xc)+E(xc)   XCENC  =      -664.70859341
  PAW double counting   =      8494.55058411    -7650.81563588
  entropy T*S    EENTRO =         0.00422178
  eigenvalues    EBANDS =      2680.61510481
  atomic energy  EATOM  =      8465.11600846
  ---------------------------------------------------
  free energy    TOTEN  =      1352.22947216 eV

  energy without entropy =     1352.22525038  energy(sigma->0) =     1352.22806490


--------------------------------------------------------------------------------------------------------




--------------------------------------- Iteration      1(   2)  ---------------------------------------


    TRIAL :  cpu time   17.9896: real time   18.9684
    CORREC:  cpu time    0.0080: real time    0.0082
    --------------------------------------------
      LOOP:  cpu time   17.9988: real time   18.9797

 eigenvalue-minimisations  : 22880
 total energy-change (2. order) :-0.1408483E+04  (-0.1379035E+04)
 number of electron     180.0000000 magnetization       0.0000000
 augmentation part      180.0000000 magnetization       0.0000000

 Free energy of the ion-electron system (eV)
  ---------------------------------------------------
  alpha Z        PSCENC =       532.25742704
  Ewald energy   TEWEN  =     -8601.05107233
  -Hartree energ DENC   =     -1903.73857242
  -exchange      EXHF   =         0.00000000
  -V(xc)+E(xc)   XCENC  =      -664.70859341
  PAW double counting   =      8494.55058411    -7650.81563588
  entropy T*S    EENTRO =         0.00141703
  eigenvalues    EBANDS =      1272.13448016
  atomic energy  EATOM  =      8465.11600846
  ---------------------------------------------------
  free energy    TOTEN  =       -56.25395724 eV

  energy without entropy =      -56.25537427  energy(sigma->0) =      -56.25442958


--------------------------------------------------------------------------------------------------------




--------------------------------------- Iteration      1(   3)  ---------------------------------------


    TRIAL :  cpu time   25.0956: real time   25.2692
    CORREC:  cpu time    0.0096: real time    0.0105
    --------------------------------------------
      LOOP:  cpu time   25.1079: real time   25.2829

 eigenvalue-minimisations  : 35096
 total energy-change (2. order) :-0.1810774E+03  (-0.1640206E+03)
 number of electron     180.0000000 magnetization       0.0000000
 augmentation part      180.0000000 magnetization       0.0000000

 Free energy of the ion-electron system (eV)
  ---------------------------------------------------
  alpha Z        PSCENC =       532.25742704
  Ewald energy   TEWEN  =     -8601.05107233
  -Hartree energ DENC   =     -1903.73857242
  -exchange      EXHF   =         0.00000000
  -V(xc)+E(xc)   XCENC  =      -664.70859341
  PAW double counting   =      8494.55058411    -7650.81563588
  entropy T*S    EENTRO =        -0.00173945
  eigenvalues    EBANDS =      1091.06021672
  atomic energy  EATOM  =      8465.11600846
  ---------------------------------------------------
  free energy    TOTEN  =      -237.33137716 eV

  energy without entropy =     -237.32963771  energy(sigma->0) =     -237.33079734


--------------------------------------------------------------------------------------------------------




--------------------------------------- Iteration      1(   4)  ---------------------------------------


    TRIAL :  cpu time   26.9259: real time   27.7424
    CORREC:  cpu time    0.0103: real time    0.0104
    --------------------------------------------
      LOOP:  cpu time   26.9373: real time   27.7560

 eigenvalue-minimisations  : 37360
 total energy-change (2. order) :-0.2885284E+02  (-0.2590890E+02)
 number of electron     180.0000000 magnetization       0.0000000
 augmentation part      180.0000000 magnetization       0.0000000

 Free energy of the ion-electron system (eV)
  ---------------------------------------------------
  alpha Z        PSCENC =       532.25742704
  Ewald energy   TEWEN  =     -8601.05107233
  -Hartree energ DENC   =     -1903.73857242
  -exchange      EXHF   =         0.00000000
  -V(xc)+E(xc)   XCENC  =      -664.70859341
  PAW double counting   =      8494.55058411    -7650.81563588
  entropy T*S    EENTRO =         0.02687025
  eigenvalues    EBANDS =      1062.17876447
  atomic energy  EATOM  =      8465.11600846
  ---------------------------------------------------
  free energy    TOTEN  =      -266.18421971 eV

  energy without entropy =     -266.21108996  energy(sigma->0) =     -266.19317646


--------------------------------------------------------------------------------------------------------




--------------------------------------- Iteration      1(   5)  ---------------------------------------


    TRIAL :  cpu time   27.2379: real time   27.5658
    CORREC:  cpu time    0.0100: real time    0.0109
    --------------------------------------------
      LOOP:  cpu time   27.2490: real time   27.5806

 eigenvalue-minimisations  : 38488
 total energy-change (2. order) :-0.3286680E+01  (-0.3133582E+01)
 number of electron     180.0000000 magnetization       0.0000000
 augmentation part      180.0000000 magnetization       0.0000000

 Free energy of the ion-electron system (eV)
  ---------------------------------------------------
  alpha Z        PSCENC =       532.25742704
  Ewald energy   TEWEN  =     -8601.05107233
  -Hartree energ DENC   =     -1903.73857242
  -exchange      EXHF   =         0.00000000
  -V(xc)+E(xc)   XCENC  =      -664.70859341
  PAW double counting   =      8494.55058411    -7650.81563588
  entropy T*S    EENTRO =         0.03419691
  eigenvalues    EBANDS =      1058.88475746
  atomic energy  EATOM  =      8465.11600846
  ---------------------------------------------------
  free energy    TOTEN  =      -269.47090006 eV

  energy without entropy =     -269.50509697  energy(sigma->0) =     -269.48229903


--------------------------------------------------------------------------------------------------------




--------------------------------------- Iteration      1(   6)  ---------------------------------------


    TRIAL :  cpu time   27.7245: real time   27.8564
    CORREC:  cpu time    0.0107: real time    0.0108
    --------------------------------------------
      LOOP:  cpu time   27.7383: real time   27.8705

 eigenvalue-minimisations  : 38224
 total energy-change (2. order) :-0.2857165E+00  (-0.2774841E+00)
 number of electron     180.0000000 magnetization       0.0000000
 augmentation part      180.0000000 magnetization       0.0000000

 Free energy of the ion-electron system (eV)
  ---------------------------------------------------
  alpha Z        PSCENC =       532.25742704
  Ewald energy   TEWEN  =     -8601.05107233
  -Hartree energ DENC   =     -1903.73857242
  -exchange      EXHF   =         0.00000000
  -V(xc)+E(xc)   XCENC  =      -664.70859341
  PAW double counting   =      8494.55058411    -7650.81563588
  entropy T*S    EENTRO =         0.03556955
  eigenvalues    EBANDS =      1058.59766830
  atomic energy  EATOM  =      8465.11600846
  ---------------------------------------------------
  free energy    TOTEN  =      -269.75661659 eV

  energy without entropy =     -269.79218613  energy(sigma->0) =     -269.76847310


--------------------------------------------------------------------------------------------------------




--------------------------------------- Iteration      1(   7)  ---------------------------------------


    TRIAL :  cpu time   27.5470: real time   28.7777
    CORREC:  cpu time    0.0102: real time    0.0110
    --------------------------------------------
      LOOP:  cpu time   27.5584: real time   28.7921

 eigenvalue-minimisations  : 39032
 total energy-change (2. order) :-0.3298796E-01  (-0.3239426E-01)
 number of electron     180.0000000 magnetization       0.0000000
 augmentation part      180.0000000 magnetization       0.0000000

 Free energy of the ion-electron system (eV)
  ---------------------------------------------------
  alpha Z        PSCENC =       532.25742704
  Ewald energy   TEWEN  =     -8601.05107233
  -Hartree energ DENC   =     -1903.73857242
  -exchange      EXHF   =         0.00000000
  -V(xc)+E(xc)   XCENC  =      -664.70859341
  PAW double counting   =      8494.55058411    -7650.81563588
  entropy T*S    EENTRO =         0.03600751
  eigenvalues    EBANDS =      1058.56424237
  atomic energy  EATOM  =      8465.11600846
  ---------------------------------------------------
  free energy    TOTEN  =      -269.78960455 eV

  energy without entropy =     -269.82561206  energy(sigma->0) =     -269.80160705


--------------------------------------------------------------------------------------------------------




--------------------------------------- Iteration      1(   8)  ---------------------------------------


    TRIAL :  cpu time   27.1357: real time   27.2988
    CORREC:  cpu time    0.0107: real time    0.0108
    CHARGE:  cpu time    1.1202: real time    1.1201
    --------------------------------------------
      LOOP:  cpu time   28.2704: real time   28.4338

 eigenvalue-minimisations  : 37480
 total energy-change (2. order) :-0.3641518E-02  (-0.3594108E-02)
 number of electron     179.9999997 magnetization       0.1381903
 augmentation part       42.5032506 magnetization       0.0543017

 Free energy of the ion-electron system (eV)
  ---------------------------------------------------
  alpha Z        PSCENC =       532.25742704
  Ewald energy   TEWEN  =     -8601.05107233
  -Hartree energ DENC   =     -1903.73857242
  -exchange      EXHF   =         0.00000000
  -V(xc)+E(xc)   XCENC  =      -664.70859341
  PAW double counting   =      8494.55058411    -7650.81563588
  entropy T*S    EENTRO =         0.03625466
  eigenvalues    EBANDS =      1058.56035371
  atomic energy  EATOM  =      8465.11600846
  ---------------------------------------------------
  free energy    TOTEN  =      -269.79324606 eV

  energy without entropy =     -269.82950072  energy(sigma->0) =     -269.80533095


--------------------------------------------------------------------------------------------------------




--------------------------------------- Iteration      1(   9)  ---------------------------------------


    POTLOK:  cpu time    0.2527: real time    0.2526
    SETDIJ:  cpu time    0.3451: real time    0.3451
    TRIAL :  cpu time    8.8636: real time    9.5949
    CORREC:  cpu time    3.3051: real time    3.4160
    CHARGE:  cpu time    1.0551: real time    1.1081
    --------------------------------------------
      LOOP:  cpu time   13.8294: real time   14.7259

 eigenvalue-minimisations  :     0
 total energy-change (2. order) : 0.2088582E+03  (-0.1467676E+03)
 number of electron     179.9999997 magnetization       0.2821229
 augmentation part       54.3483966 magnetization       0.1402411

 Free energy of the ion-electron system (eV)
  ---------------------------------------------------
  alpha Z        PSCENC =       532.25742704
  Ewald energy   TEWEN  =     -8601.05107233
  -Hartree energ DENC   =      -837.95146526
  -exchange      EXHF   =         0.00000000
  -V(xc)+E(xc)   XCENC  =      -694.71319748
  PAW double counting   =     12749.65353627   -11802.48742254
  entropy T*S    EENTRO =        -0.00355107
  eigenvalues    EBANDS =       128.20493263
  atomic energy  EATOM  =      8465.11600846
  ---------------------------------------------------
  free energy    TOTEN  =       -60.93499854 eV

  energy without entropy =      -60.93144747  energy(sigma->0) =      -60.93381485


--------------------------------------------------------------------------------------------------------




--------------------------------------- Iteration      1(  10)  ---------------------------------------


    POTLOK:  cpu time    0.2474: real time    0.2474
    SETDIJ:  cpu time    0.3270: real time    0.3269
    TRIAL :  cpu time    8.8742: real time    8.9850
    CORREC:  cpu time    3.3464: real time    3.3545
    CHARGE:  cpu time    1.0673: real time    1.0676
    --------------------------------------------
      LOOP:  cpu time   13.8847: real time   14.0046

 eigenvalue-minimisations  :     0
 total energy-change (2. order) :-0.1465457E+03  (-0.9738654E+01)
 number of electron     179.9999996 magnetization       0.1052838
 augmentation part       57.5659996 magnetization       0.0525211

 Free energy of the ion-electron system (eV)
  ---------------------------------------------------
  alpha Z        PSCENC =       532.25742704
  Ewald energy   TEWEN  =     -8601.05107233
  -Hartree energ DENC   =     -1370.17385390
  -exchange      EXHF   =         0.00000000
  -V(xc)+E(xc)   XCENC  =      -676.67339084
  PAW double counting   =     13637.05995733   -12806.02590978
  entropy T*S    EENTRO =        -0.00492952
  eigenvalues    EBANDS =       612.01366359
  atomic energy  EATOM  =      8465.11600846
  ---------------------------------------------------
  free energy    TOTEN  =      -207.48072151 eV

  energy without entropy =     -207.47579200  energy(sigma->0) =     -207.47907834


--------------------------------------------------------------------------------------------------------




--------------------------------------- Iteration      1(  11)  ---------------------------------------


    POTLOK:  cpu time    0.2491: real time    0.2492
    SETDIJ:  cpu time    0.3452: real time    0.3558
    TRIAL :  cpu time    8.9713: real time    9.0261
    CORREC:  cpu time    3.3910: real time    3.3930
    CHARGE:  cpu time    1.0607: real time    1.0616
    --------------------------------------------
      LOOP:  cpu time   14.0224: real time   14.0907

 eigenvalue-minimisations  :     0
 total energy-change (2. order) :-0.9757254E+01  (-0.7170902E+01)
 number of electron     179.9999996 magnetization       0.3482474
 augmentation part       59.0723239 magnetization       0.1936324

 Free energy of the ion-electron system (eV)
  ---------------------------------------------------
  alpha Z        PSCENC =       532.25742704
  Ewald energy   TEWEN  =     -8601.05107233
  -Hartree energ DENC   =     -1553.58605179
  -exchange      EXHF   =         0.00000000
  -V(xc)+E(xc)   XCENC  =      -670.10986517
  PAW double counting   =     14398.97619781   -13601.02325513
  entropy T*S    EENTRO =        -0.01374733
  eigenvalues    EBANDS =       812.18756495
  atomic energy  EATOM  =      8465.11600846
  ---------------------------------------------------
  free energy    TOTEN  =      -217.23797568 eV

  energy without entropy =     -217.22422835  energy(sigma->0) =     -217.23339324


--------------------------------------------------------------------------------------------------------




--------------------------------------- Iteration      1(  12)  ---------------------------------------


    POTLOK:  cpu time    0.2516: real time    0.2969
    SETDIJ:  cpu time    0.3298: real time    0.3298
    TRIAL :  cpu time    8.9201: real time    8.9766
    CORREC:  cpu time    3.3777: real time    3.3873
    CHARGE:  cpu time    1.0667: real time    1.0668
    --------------------------------------------
      LOOP:  cpu time   13.9542: real time   14.0670

 eigenvalue-minimisations  :     0
 total energy-change (2. order) :-0.7203962E+01  (-0.8192263E+01)
 number of electron     179.9999996 magnetization       0.0601527
 augmentation part       58.4300661 magnetization       0.0527800

 Free energy of the ion-electron system (eV)
  ---------------------------------------------------
  alpha Z        PSCENC =       532.25742704
  Ewald energy   TEWEN  =     -8601.05107233
  -Hartree energ DENC   =     -1679.93940283
  -exchange      EXHF   =         0.00000000
  -V(xc)+E(xc)   XCENC  =      -665.91298547
  PAW double counting   =     14513.30975633   -13721.49079339
  entropy T*S    EENTRO =        -0.00961429
  eigenvalues    EBANDS =       933.28287224
  atomic energy  EATOM  =      8465.11600846
  ---------------------------------------------------
  free energy    TOTEN  =      -224.44193729 eV

  energy without entropy =     -224.43232300  energy(sigma->0) =     -224.43873253


--------------------------------------------------------------------------------------------------------




--------------------------------------- Iteration      1(  13)  ---------------------------------------


    POTLOK:  cpu time    0.2476: real time    0.2476
    SETDIJ:  cpu time    0.3430: real time    0.3430
    TRIAL :  cpu time    9.9815: real time   10.6999
    CORREC:  cpu time    3.3749: real time    3.3781
    CHARGE:  cpu time    1.0524: real time    1.1321
    --------------------------------------------
      LOOP:  cpu time   15.0048: real time   15.8081

 eigenvalue-minimisations  :     0
 total energy-change (2. order) :-0.8086755E+01  (-0.1130835E+01)
 number of electron     179.9999997 magnetization       0.1584739
 augmentation part       57.5909633 magnetization       0.0897707

 Free energy of the ion-electron system (eV)
  ---------------------------------------------------
  alpha Z        PSCENC =       532.25742704
  Ewald energy   TEWEN  =     -8601.05107233
  -Hartree energ DENC   =     -1709.31997090
  -exchange      EXHF   =         0.00000000
  -V(xc)+E(xc)   XCENC  =      -665.31250917
  PAW double counting   =     14237.54528398   -13420.46010852
  entropy T*S    EENTRO =        -0.00949359
  eigenvalues    EBANDS =       928.70586334
  atomic energy  EATOM  =      8465.11600846
  ---------------------------------------------------
  free energy    TOTEN  =      -232.52869240 eV

  energy without entropy =     -232.51919881  energy(sigma->0) =     -232.52552787


--------------------------------------------------------------------------------------------------------




--------------------------------------- Iteration      1(  14)  ---------------------------------------


    POTLOK:  cpu time    0.2647: real time    0.2731
    SETDIJ:  cpu time    0.3158: real time    0.3159
    TRIAL :  cpu time    8.9308: real time    9.0742
    CORREC:  cpu time    3.3021: real time    3.3363
    CHARGE:  cpu time    1.0882: real time    1.0892
    --------------------------------------------
      LOOP:  cpu time   13.9047: real time   14.0926

 eigenvalue-minimisations  :     0
 total energy-change (2. order) :-0.1110531E+01  (-0.6249784E+00)
 number of electron     179.9999997 magnetization       0.0938781
 augmentation part       57.1749033 magnetization       0.0617848

 Free energy of the ion-electron system (eV)
  ---------------------------------------------------
  alpha Z        PSCENC =       532.25742704
  Ewald energy   TEWEN  =     -8601.05107233
  -Hartree energ DENC   =     -1669.22881136
  -exchange      EXHF   =         0.00000000
  -V(xc)+E(xc)   XCENC  =      -666.83213481
  PAW double counting   =     13986.79738269   -13156.85150703
  entropy T*S    EENTRO =        -0.00645662
  eigenvalues    EBANDS =       876.16297752
  atomic energy  EATOM  =      8465.11600846
  ---------------------------------------------------
  free energy    TOTEN  =      -233.63922340 eV

  energy without entropy =     -233.63276679  energy(sigma->0) =     -233.63707120


--------------------------------------------------------------------------------------------------------




--------------------------------------- Iteration      1(  15)  ---------------------------------------


    POTLOK:  cpu time    0.2489: real time    0.2489
    SETDIJ:  cpu time    0.3209: real time    0.3210
    TRIAL :  cpu time    9.0003: real time    9.0598
    CORREC:  cpu time    3.3538: real time    3.3668
    CHARGE:  cpu time    1.0822: real time    1.0831
    --------------------------------------------
      LOOP:  cpu time   14.0093: real time   14.0842

 eigenvalue-minimisations  :     0
 total energy-change (2. order) :-0.6175312E+00  (-0.8047969E+00)
 number of electron     179.9999996 magnetization       0.1568365
 augmentation part       57.5661288 magnetization       0.0908357

 Free energy of the ion-electron system (eV)
  ---------------------------------------------------
  alpha Z        PSCENC =       532.25742704
  Ewald energy   TEWEN  =     -8601.05107233
  -Hartree energ DENC   =     -1642.67747518
  -exchange      EXHF   =         0.00000000
  -V(xc)+E(xc)   XCENC  =      -667.73460919
  PAW double counting   =     13638.74279619   -12801.74986433
  entropy T*S    EENTRO =        -0.00385119
  eigenvalues    EBANDS =       842.84649137
  atomic energy  EATOM  =      8465.11600846
  ---------------------------------------------------
  free energy    TOTEN  =      -234.25675460 eV

  energy without entropy =     -234.25290341  energy(sigma->0) =     -234.25547087


--------------------------------------------------------------------------------------------------------




--------------------------------------- Iteration      1(  16)  ---------------------------------------


    POTLOK:  cpu time    0.2481: real time    0.2481
    SETDIJ:  cpu time    0.3206: real time    0.3207
    TRIAL :  cpu time    8.9414: real time    9.0491
    CORREC:  cpu time    3.3304: real time    3.3441
    CHARGE:  cpu time    1.0804: real time    1.0811
    --------------------------------------------
      LOOP:  cpu time   13.9288: real time   14.0520

 eigenvalue-minimisations  :     0
 total energy-change (2. order) :-0.8051283E+00  (-0.2105915E+00)
 number of electron     179.9999996 magnetization       0.0922434
 augmentation part       57.9174005 magnetization       0.0540847

 Free energy of the ion-electron system (eV)
  ---------------------------------------------------
  alpha Z        PSCENC =       532.25742704
  Ewald energy   TEWEN  =     -8601.05107233
  -Hartree energ DENC   =     -1650.39110775
  -exchange      EXHF   =         0.00000000
  -V(xc)+E(xc)   XCENC  =      -667.35662682
  PAW double counting   =     13144.89478507   -12309.04316188
  entropy T*S    EENTRO =        -0.00359067
  eigenvalues    EBANDS =       850.51571647
  atomic energy  EATOM  =      8465.11600846
  ---------------------------------------------------
  free energy    TOTEN  =      -235.06188293 eV

  energy without entropy =     -235.05829226  energy(sigma->0) =     -235.06068604


--------------------------------------------------------------------------------------------------------




--------------------------------------- Iteration      1(  17)  ---------------------------------------


    POTLOK:  cpu time    0.2470: real time    0.2471
    SETDIJ:  cpu time    0.3231: real time    0.3232
    TRIAL :  cpu time    9.7332: real time    9.7486
    CORREC:  cpu time    3.2868: real time    4.0758
    CHARGE:  cpu time    1.0661: real time    1.0664
    --------------------------------------------
      LOOP:  cpu time   14.6602: real time   15.4658

 eigenvalue-minimisations  :     0
 total energy-change (2. order) :-0.2101534E+00  (-0.1553416E+00)
 number of electron     179.9999996 magnetization       0.1586647
 augmentation part       58.2098540 magnetization       0.0846966

 Free energy of the ion-electron system (eV)
  ---------------------------------------------------
  alpha Z        PSCENC =       532.25742704
  Ewald energy   TEWEN  =     -8601.05107233
  -Hartree energ DENC   =     -1664.79649910
  -exchange      EXHF   =         0.00000000
  -V(xc)+E(xc)   XCENC  =      -666.74578978
  PAW double counting   =     13049.86824053   -12217.36082735
  entropy T*S    EENTRO =        -0.00212328
  eigenvalues    EBANDS =       867.44406685
  atomic energy  EATOM  =      8465.11600846
  ---------------------------------------------------
  free energy    TOTEN  =      -235.27203636 eV

  energy without entropy =     -235.26991308  energy(sigma->0) =     -235.27132860


--------------------------------------------------------------------------------------------------------




--------------------------------------- Iteration      1(  18)  ---------------------------------------


    POTLOK:  cpu time    0.2482: real time    0.2488
    SETDIJ:  cpu time    0.3389: real time    0.3390
    TRIAL :  cpu time    8.9285: real time    9.1045
    CORREC:  cpu time    3.2613: real time    3.4050
    CHARGE:  cpu time    1.0615: real time    1.0616
    --------------------------------------------
      LOOP:  cpu time   13.8586: real time   14.1792

 eigenvalue-minimisations  :     0
 total energy-change (2. order) :-0.1554901E+00  (-0.1777731E+00)
 number of electron     179.9999996 magnetization       0.1162118
 augmentation part       58.1849305 magnetization       0.0759607

 Free energy of the ion-electron system (eV)
  ---------------------------------------------------
  alpha Z        PSCENC =       532.25742704
  Ewald energy   TEWEN  =     -8601.05107233
  -Hartree energ DENC   =     -1677.25209832
  -exchange      EXHF   =         0.00000000
  -V(xc)+E(xc)   XCENC  =      -666.16941538
  PAW double counting   =     13006.60663177   -12177.29063640
  entropy T*S    EENTRO =        -0.00342164
  eigenvalues    EBANDS =       882.35775203
  atomic energy  EATOM  =      8465.11600846
  ---------------------------------------------------
  free energy    TOTEN  =      -235.42752641 eV

  energy without entropy =     -235.42410477  energy(sigma->0) =     -235.42638586


--------------------------------------------------------------------------------------------------------




--------------------------------------- Iteration      1(  19)  ---------------------------------------


    POTLOK:  cpu time    0.2483: real time    0.2483
    SETDIJ:  cpu time    0.3344: real time    0.3403
    TRIAL :  cpu time    8.9563: real time    8.9654
    CORREC:  cpu time    3.3633: real time    3.3872
    CHARGE:  cpu time    1.0811: real time    1.0834
    --------------------------------------------
      LOOP:  cpu time   13.9898: real time   14.0313

 eigenvalue-minimisations  :     0
 total energy-change (2. order) :-0.1776427E+00  (-0.6868423E-01)
 number of electron     179.9999996 magnetization       0.1565548
 augmentation part       57.9966757 magnetization       0.1004522

 Free energy of the ion-electron system (eV)
  ---------------------------------------------------
  alpha Z        PSCENC =       532.25742704
  Ewald energy   TEWEN  =     -8601.05107233
  -Hartree energ DENC   =     -1673.26440310
  -exchange      EXHF   =         0.00000000
  -V(xc)+E(xc)   XCENC  =      -666.10086815
  PAW double counting   =     12967.83919320   -12138.51383830
  entropy T*S    EENTRO =        -0.00326621
  eigenvalues    EBANDS =       878.11580568
  atomic energy  EATOM  =      8465.11600846
  ---------------------------------------------------
  free energy    TOTEN  =      -235.60516915 eV

  energy without entropy =     -235.60190294  energy(sigma->0) =     -235.60408041


--------------------------------------------------------------------------------------------------------




--------------------------------------- Iteration      1(  20)  ---------------------------------------


    POTLOK:  cpu time    0.2478: real time    0.2477
    SETDIJ:  cpu time    0.3429: real time    0.3429
    TRIAL :  cpu time    8.9106: real time    9.0301
    CORREC:  cpu time    3.3977: real time    3.3994
    CHARGE:  cpu time    1.0627: real time    1.0628
    --------------------------------------------
      LOOP:  cpu time   13.9645: real time   14.0859

 eigenvalue-minimisations  :     0
 total energy-change (2. order) :-0.6846753E-01  (-0.4192422E-01)
 number of electron     179.9999996 magnetization       0.1534279
 augmentation part       57.8441362 magnetization       0.1023979

 Free energy of the ion-electron system (eV)
  ---------------------------------------------------
  alpha Z        PSCENC =       532.25742704
  Ewald energy   TEWEN  =     -8601.05107233
  -Hartree energ DENC   =     -1663.16606095
  -exchange      EXHF   =         0.00000000
  -V(xc)+E(xc)   XCENC  =      -666.38264197
  PAW double counting   =     12951.24620005   -12120.02207400
  entropy T*S    EENTRO =        -0.00363695
  eigenvalues    EBANDS =       866.33184323
  atomic energy  EATOM  =      8465.11600846
  ---------------------------------------------------
  free energy    TOTEN  =      -235.67363668 eV

  energy without entropy =     -235.66999973  energy(sigma->0) =     -235.67242436


--------------------------------------------------------------------------------------------------------




--------------------------------------- Iteration      1(  21)  ---------------------------------------


    POTLOK:  cpu time    0.2450: real time    0.2549
    SETDIJ:  cpu time    0.3381: real time    0.3380
    TRIAL :  cpu time    9.6557: real time    9.6582
    CORREC:  cpu time    3.6022: real time    3.6399
    CHARGE:  cpu time    1.0464: real time    1.6832
    --------------------------------------------
      LOOP:  cpu time   14.9067: real time   15.5957

 eigenvalue-minimisations  :     0
 total energy-change (2. order) :-0.4185234E-01  (-0.7088348E-01)
 number of electron     179.9999996 magnetization       0.2037557
 augmentation part       57.7849331 magnetization       0.1338617

 Free energy of the ion-electron system (eV)
  ---------------------------------------------------
  alpha Z        PSCENC =       532.25742704
  Ewald energy   TEWEN  =     -8601.05107233
  -Hartree energ DENC   =     -1656.15998239
  -exchange      EXHF   =         0.00000000
  -V(xc)+E(xc)   XCENC  =      -666.57022554
  PAW double counting   =     12945.69621577   -12113.02533218
  entropy T*S    EENTRO =        -0.00340788
  eigenvalues    EBANDS =       858.02510912
  atomic energy  EATOM  =      8465.11600846
  ---------------------------------------------------
  free energy    TOTEN  =      -235.71548901 eV

  energy without entropy =     -235.71208113  energy(sigma->0) =     -235.71435305


--------------------------------------------------------------------------------------------------------




--------------------------------------- Iteration      1(  22)  ---------------------------------------


    POTLOK:  cpu time    0.2474: real time    0.2474
    SETDIJ:  cpu time    0.3472: real time    0.3472
    TRIAL :  cpu time    8.8903: real time    9.0513
    CORREC:  cpu time    3.3404: real time    3.3977
    CHARGE:  cpu time    1.0809: real time    1.0809
    --------------------------------------------
      LOOP:  cpu time   13.9118: real time   14.1301

 eigenvalue-minimisations  :     0
 total energy-change (2. order) :-0.7088401E-01  (-0.3145955E-01)
 number of electron     179.9999996 magnetization       0.1825315
 augmentation part       57.8685251 magnetization       0.1263794

 Free energy of the ion-electron system (eV)
  ---------------------------------------------------
  alpha Z        PSCENC =       532.25742704
  Ewald energy   TEWEN  =     -8601.05107233
  -Hartree energ DENC   =     -1656.28406544
  -exchange      EXHF   =         0.00000000
  -V(xc)+E(xc)   XCENC  =      -666.47435456
  PAW double counting   =     12964.06630720   -12131.22881062
  entropy T*S    EENTRO =        -0.00418609
  eigenvalues    EBANDS =       857.81559512
  atomic energy  EATOM  =      8465.11600846
  ---------------------------------------------------
  free energy    TOTEN  =      -235.78637302 eV

  energy without entropy =     -235.78218694  energy(sigma->0) =     -235.78497766


--------------------------------------------------------------------------------------------------------




--------------------------------------- Iteration      1(  23)  ---------------------------------------


    POTLOK:  cpu time    0.2481: real time    0.2481
    SETDIJ:  cpu time    0.3236: real time    0.3236
    TRIAL :  cpu time    8.8988: real time    8.9311
    CORREC:  cpu time    3.4564: real time    3.4816
    CHARGE:  cpu time    1.0837: real time    1.0837
    --------------------------------------------
[...]
  8.438  14.379  -0.001   0.000   0.001  -0.002   0.000   0.002
 14.379  24.505  -0.001   0.000   0.001  -0.003   0.000   0.003
 -0.001  -0.001   1.996   0.000   0.000   5.747   0.000   0.000
  0.000   0.000   0.000   1.995  -0.000   0.000   5.746  -0.000
  0.001   0.001   0.000  -0.000   1.996   0.000  -0.000   5.748
 -0.002  -0.003   5.747   0.000   0.000  16.471   0.000   0.000
  0.000   0.000   0.000   5.746  -0.000   0.000  16.467  -0.001
  0.002   0.003   0.000  -0.000   5.748   0.000  -0.001  16.471
 total augmentation occupancy for first ion, spin component:           1
  4.358  -1.241  -0.002  -0.001   0.006  -0.000  -0.000   0.000
 -1.241   0.373   0.002   0.000  -0.003  -0.000   0.000   0.000
 -0.002   0.002   1.407  -0.002   0.003  -0.100   0.000  -0.000
 -0.001   0.000  -0.002   1.494   0.002   0.000  -0.101  -0.000
  0.006  -0.003   0.003   0.002   1.399  -0.000  -0.000  -0.100
 -0.000  -0.000  -0.100   0.000  -0.000   0.007  -0.000   0.000
 -0.000   0.000   0.000  -0.101  -0.000  -0.000   0.007  -0.000
  0.000   0.000  -0.000  -0.000  -0.100   0.000  -0.000   0.007
 total augmentation occupancy for first ion, spin component:           2
 -0.009   0.002   0.030  -0.058  -0.029  -0.001   0.002   0.001
  0.002   0.000   0.003  -0.011  -0.004  -0.000   0.001   0.000
  0.030   0.003   0.002  -0.004   0.007   0.000  -0.000  -0.000
 -0.058  -0.011  -0.004  -0.003   0.008   0.000   0.000  -0.000
 -0.029  -0.004   0.007   0.008  -0.010  -0.000  -0.000   0.000
 -0.001  -0.000   0.000   0.000  -0.000  -0.000   0.000  -0.000
  0.002   0.001  -0.000   0.000  -0.000   0.000   0.000  -0.000
  0.001   0.000  -0.000  -0.000   0.000  -0.000  -0.000   0.000


------------------------ aborting loop because EDIFF is reached ----------------------------------------


 


 total charge     
 
# of ion       s       p       d       tot
------------------------------------------
    1        0.405   0.425   0.000   0.830
    2        0.406   0.425   0.000   0.830
    3        0.405   0.425   0.000   0.830
    4        0.406   0.425   0.000   0.830
    5        0.404   0.428   0.000   0.832
    6        0.404   0.428   0.000   0.832
    7        0.405   0.429   0.000   0.834
    8        0.405   0.429   0.000   0.834
    9        0.405   0.428   0.000   0.833
   10        0.405   0.428   0.000   0.833
   11        0.404   0.428   0.000   0.832
   12        0.405   0.428   0.000   0.832
   13        0.405   0.429   0.000   0.834
   14        0.405   0.429   0.000   0.834
   15        0.405   0.429   0.000   0.834
   16        0.405   0.429   0.000   0.834
   17        0.405   0.431   0.000   0.836
   18        0.405   0.431   0.000   0.835
   19        0.332   0.358   5.125   5.815
   20        0.333   0.355   5.134   5.823
   21        0.338   0.358   5.116   5.812
   22        0.338   0.351   5.126   5.815
   23        0.338   0.353   5.126   5.817
   24        0.339   0.354   5.118   5.811
   25        0.337   0.365   5.096   5.799
   26        0.333   0.352   5.140   5.825
   27        0.335   0.357   5.125   5.817
   28        0.330   0.354   5.142   5.825
   29        0.333   0.353   5.144   5.829
   30        0.331   0.357   5.124   5.812
   31        0.327   0.352   5.161   5.840
   32        0.332   0.346   5.148   5.827
   33        0.334   0.355   5.131   5.820
   34        0.333   0.357   5.124   5.814
   35        0.335   0.358   5.118   5.811
   36        0.332   0.355   5.139   5.826
--------------------------------------------------
tot         13.300  14.093  92.337 119.730
 


 magnetization (x)
 
# of ion       s       p       d       tot
------------------------------------------
    1       -0.001  -0.001   0.000  -0.003
    2       -0.001  -0.001   0.000  -0.002
    3        0.006   0.014   0.000   0.021
    4        0.006   0.014   0.000   0.020
    5        0.001   0.000   0.000   0.002
    6        0.001   0.001   0.000   0.002
    7       -0.007  -0.016   0.000  -0.024
    8       -0.008  -0.016   0.000  -0.024
    9       -0.000   0.000   0.000   0.000
   10       -0.000  -0.000   0.000  -0.001
   11       -0.002  -0.002   0.000  -0.004
   12       -0.002  -0.002   0.000  -0.004
   13       -0.003  -0.003   0.000  -0.006
   14       -0.003  -0.002   0.000  -0.005
   15        0.001  -0.001   0.000   0.000
   16        0.001  -0.000   0.000   0.001
   17       -0.000  -0.001   0.000  -0.001
   18       -0.000  -0.001   0.000  -0.001
   19        0.019   0.023   2.298   2.340
   20       -0.019  -0.022  -2.213  -2.254
   21       -0.034  -0.025  -2.456  -2.515
   22       -0.030  -0.014  -2.560  -2.604
   23        0.031   0.014   2.528   2.573
   24        0.036   0.024   2.505   2.566
   25        0.038   0.035   2.548   2.620
   26        0.025   0.006   2.259   2.290
   27       -0.019  -0.017  -2.340  -2.376
   28        0.016   0.017   2.090   2.123
   29       -0.030  -0.020  -2.192  -2.241
   30        0.005   0.014   2.277   2.297
   31       -0.032  -0.038  -1.396  -1.466
   32       -0.020   0.008  -2.392  -2.404
   33        0.031   0.026   2.268   2.325
   34       -0.007  -0.020  -2.289  -2.316
   35        0.020   0.023   2.411   2.455
   36       -0.018  -0.024  -2.094  -2.136
--------------------------------------------------
tot          0.001  -0.006   1.251   1.246
 
    FORLOC:  cpu time    0.0285: real time    0.0285
    FORNL :  cpu time   12.8672: real time   13.0122
    STRESS:  cpu time   17.9151: real time   18.0177
    FORCOR:  cpu time    0.2722: real time    0.2723
    OFIELD:  cpu time    0.0017: real time    0.0017

  FORCE on cell =-STRESS in cart. coord.  units (eV):
  Direction    XX          YY          ZZ          XY          YZ          ZX
  --------------------------------------------------------------------------------------
  Alpha Z   532.25743   532.25743   532.25743
  Ewald   -2702.40749 -2702.40749 -3196.26924    -0.00000    -0.00000    -0.00000
  Hartree   719.84542   720.11044   225.70378    -0.27543    -0.00000    -0.00000
  E(xc)    -760.02436  -760.04916  -760.16679     0.13622     0.00000     0.00000
  Local     249.57110   250.15881  1261.36533     0.95125    -0.00000    -0.00000
  n-local  -109.35256  -109.21275  -120.55303     0.07042    -0.15419    -0.17639
  augment   520.96257   520.74987   515.32005    -0.36156     0.00001     0.00001
  Kinetic  1555.81779  1554.06792  1542.98143    -1.13194     0.62598    -0.03247
  Fock        0.00000     0.00000     0.00000     0.00000     0.00000     0.00000
  -------------------------------------------------------------------------------------
  Total       6.66989     5.67507     0.63896    -0.61104     0.00000     0.00000
  in kB      22.57961    19.21185     2.16306    -2.06855     0.00000     0.00000
  external pressure =       14.65 kB  Pullay stress =        0.00 kB


 VOLUME and BASIS-vectors are now :
 -----------------------------------------------------------------------------
  energy-cutoff  :      404.80
  volume of cell :      473.27
      direct lattice vectors                 reciprocal lattice vectors
     8.250148166  0.000000000  0.000000000     0.121209944  0.000000000  0.000000000
     0.000000000  8.250148166  0.000000000     0.000000000  0.121209944  0.000000000
     0.000000000  0.000000000  6.953274261     0.000000000  0.000000000  0.143817137

  length of vectors
     8.250148166  8.250148166  6.953274261     0.121209944  0.121209944  0.143817137


 FORCES acting on ions:
    Electron-Ion                     Ewald-Force                    Non-Local-Force
 -----------------------------------------------------------------------------------------------
   -.201E+00 0.166E+00 0.104E+00   -.239E-08 -.239E-08 0.411E-08   0.854E-02 -.403E-01 -.144E-01
   -.201E+00 0.166E+00 -.104E+00   -.239E-08 -.239E-08 0.411E-08   0.854E-02 -.403E-01 0.144E-01
   -.194E+00 -.176E+00 -.102E+00   -.239E-08 -.802E-09 0.411E-08   0.226E-01 0.405E-01 0.126E-02
   -.194E+00 -.176E+00 0.102E+00   -.239E-08 -.802E-09 0.411E-08   0.226E-01 0.405E-01 -.126E-02
   -.113E+00 0.102E-01 0.320E-01   -.239E-08 0.631E-08 0.411E-08   0.923E-02 -.131E-01 -.347E-01
   -.113E+00 0.102E-01 -.320E-01   -.239E-08 0.631E-08 0.411E-08   0.923E-02 -.131E-01 0.347E-01
   0.111E-01 0.585E-02 0.360E-01   -.802E-09 -.239E-08 0.411E-08   0.266E-01 -.291E-01 -.176E-01
   0.111E-01 0.585E-02 -.360E-01   -.802E-09 -.239E-08 0.411E-08   0.266E-01 -.291E-01 0.176E-01
   -.746E-02 -.228E-01 -.256E-01   -.802E-09 -.802E-09 0.411E-08   0.181E-01 0.283E-01 -.130E-03
   -.746E-02 -.228E-01 0.256E-01   -.802E-09 -.802E-09 0.411E-08   0.181E-01 0.283E-01 0.130E-03
   0.157E+00 0.203E-01 0.603E-01   -.802E-09 0.631E-08 0.411E-08   -.126E-01 0.100E-01 -.416E-01
   0.157E+00 0.203E-01 -.603E-01   -.802E-09 0.631E-08 0.411E-08   -.126E-01 0.100E-01 0.416E-01
   0.152E+00 0.297E+00 -.431E-01   0.631E-08 -.239E-08 0.411E-08   -.363E-01 -.397E-01 0.102E-01
   0.152E+00 0.297E+00 0.431E-01   0.631E-08 -.239E-08 0.411E-08   -.363E-01 -.397E-01 -.102E-01
   0.171E+00 -.306E+00 -.686E-01   0.631E-08 -.802E-09 0.411E-08   0.867E-02 0.400E-01 0.316E-01
   0.171E+00 -.306E+00 0.686E-01   0.631E-08 -.802E-09 0.411E-08   0.867E-02 0.400E-01 -.316E-01
   0.510E-01 0.139E-01 0.265E-01   0.631E-08 0.631E-08 0.411E-08   -.612E-01 -.164E-02 -.867E-02
   0.510E-01 0.139E-01 -.265E-01   0.631E-08 0.631E-08 0.411E-08   -.612E-01 -.164E-02 0.867E-02
   0.247E+00 -.250E+00 -.250E-08   -.169E-07 -.169E-07 -.411E-08   -.251E+00 0.101E+00 0.000E+00
   -.299E+00 0.371E+00 -.799E-09   -.169E-07 -.169E-07 -.411E-08   0.786E-01 -.230E+00 0.000E+00
   0.586E+00 0.668E-01 -.645E-08   -.169E-07 0.802E-09 -.411E-08   -.186E+00 -.490E-01 0.000E+00
   -.453E+00 -.471E+00 0.318E-08   -.169E-07 0.802E-09 -.411E-08   0.770E-01 0.267E+00 0.000E+00
   -.446E+00 0.466E+00 -.283E-08   -.169E-07 0.130E-07 -.411E-08   0.171E+00 -.351E+00 0.000E+00
   0.678E+00 -.172E+00 -.286E-08   -.169E-07 0.130E-07 -.411E-08   -.320E+00 0.166E+00 0.000E+00
   -.315E+00 -.764E-01 0.105E-08   0.802E-09 -.169E-07 -.411E-08   0.220E+00 0.503E-01 0.000E+00
   0.314E+00 -.522E-01 -.286E-08   0.802E-09 -.169E-07 -.411E-08   -.318E+00 0.951E-01 0.000E+00
   -.431E+00 0.341E+00 -.336E-08   0.802E-09 0.802E-09 -.411E-08   0.209E+00 -.256E+00 0.000E+00
   -.251E+00 0.210E+00 0.799E-09   0.802E-09 0.802E-09 -.411E-08   0.171E+00 -.148E+00 0.000E+00
   -.110E+00 -.373E+00 0.464E-09   0.802E-09 0.130E-07 -.411E-08   0.806E-01 0.174E+00 0.000E+00
   -.456E+00 -.187E+00 -.542E-08   0.802E-09 0.130E-07 -.411E-08   0.295E+00 0.127E+00 0.000E+00
   -.104E+00 0.160E+00 -.789E-09   0.130E-07 -.169E-07 -.411E-08   0.212E-01 -.123E+00 0.000E+00
   0.180E+00 -.475E-01 -.249E-08   0.130E-07 -.169E-07 -.411E-08   -.346E-01 0.886E-01 0.000E+00
   -.339E-01 0.263E+00 -.522E-08   0.130E-07 0.802E-09 -.411E-08   0.143E+00 -.179E+00 0.000E+00
   0.361E+00 -.673E-02 0.113E-08   0.130E-07 0.802E-09 -.411E-08   -.197E+00 -.995E-02 0.000E+00
   0.359E+00 -.259E+00 -.165E-08   0.130E-07 0.130E-07 -.411E-08   -.121E+00 0.225E+00 0.000E+00
   0.108E+00 0.334E-01 -.487E-08   0.130E-07 0.130E-07 -.411E-08   0.109E-01 0.298E-01 0.000E+00
 -----------------------------------------------------------------------------------------------
   -.161E-01 0.331E-01 -.718E-07   -.197E-14 0.275E-13 0.265E-14   0.162E-01 -.331E-01 0.000E+00
 
 
 POSITION                                       TOTAL-FORCE (eV/Angst)
 -----------------------------------------------------------------------------------
      0.00000      0.00000      0.00000        -0.194212      0.129550      0.091290
      0.00000      0.00000      3.47664        -0.194212      0.129550     -0.091290
      0.00000      2.75005      0.00000        -0.174522     -0.140232     -0.099012
      0.00000      2.75005      3.47664        -0.174522     -0.140232      0.099012
      0.00000      5.50010      0.00000        -0.105689     -0.001761      0.000359
      0.00000      5.50010      3.47664        -0.105689     -0.001761     -0.000359
      2.75005      0.00000      0.00000         0.035412     -0.020840      0.020175
      2.75005      0.00000      3.47664         0.035412     -0.020840     -0.020175
      2.75005      2.75005      0.00000         0.009091      0.003245     -0.025186
      2.75005      2.75005      3.47664         0.009091      0.003245      0.025186
      2.75005      5.50010      0.00000         0.146660      0.029613      0.022596
      2.75005      5.50010      3.47664         0.146660      0.029613     -0.022596
      5.50010      0.00000      0.00000         0.119198      0.261405     -0.032503
      5.50010      0.00000      3.47664         0.119198      0.261405      0.032503
      5.50010      2.75005      0.00000         0.180277     -0.269719     -0.038479
      5.50010      2.75005      3.47664         0.180277     -0.269719      0.038479
      5.50010      5.50010      0.00000        -0.005001      0.012409      0.018715
      5.50010      5.50010      3.47664        -0.005001      0.012409     -0.018715
      1.37502      1.37502      1.73832         0.000487     -0.145359      0.000000
      1.37502      1.37502      5.21496        -0.224174      0.140255      0.000000
      1.37502      4.12507      1.73832         0.408148      0.018049      0.000000
      1.37502      4.12507      5.21496        -0.389780     -0.209505      0.000000
      1.37502      6.87512      1.73832        -0.287133      0.123013      0.000000
      1.37502      6.87512      5.21496         0.375416     -0.010182      0.000000
      4.12507      1.37502      1.73832        -0.108454     -0.027879      0.000000
      4.12507      1.37502      5.21496         0.003697      0.039341      0.000000
      4.12507      4.12507      1.73832        -0.227653      0.076424      0.000000
      4.12507      4.12507      5.21496        -0.090990      0.065939      0.000000
      4.12507      6.87512      1.73832        -0.032129     -0.196018      0.000000
      4.12507      6.87512      5.21496        -0.168868     -0.063138      0.000000
      6.87512      1.37502      1.73832        -0.085910      0.042883      0.000000
      6.87512      1.37502      5.21496         0.146904      0.042197      0.000000
      6.87512      4.12507      1.73832         0.114491      0.090278      0.000000
      6.87512      4.12507      5.21496         0.171426     -0.018591      0.000000
      6.87512      6.87512      1.73832         0.244653     -0.037704      0.000000
      6.87512      6.87512      5.21496         0.127440      0.062658      0.000000
 -----------------------------------------------------------------------------------
    total drift:                                0.000022      0.000006     -0.000000


--------------------------------------------------------------------------------------------------------



  FREE ENERGIE OF THE ION-ELECTRON SYSTEM (eV)
  ---------------------------------------------------
  free  energy   TOTEN  =      -235.94081496 eV

  energy  without entropy=     -235.96798527  energy(sigma->0) =     -235.94987173
 


--------------------------------------------------------------------------------------------------------


    POTLOK:  cpu time    0.6298: real time    0.6772


--------------------------------------------------------------------------------------------------------


     LOOP+:  cpu time 1479.1659: real time 1509.2776
    4ORBIT:  cpu time    0.0000: real time    0.0000
 


 total charge     
 
# of ion       s       p       d       tot
------------------------------------------
    1        0.405   0.425   0.000   0.830
    2        0.406   0.425   0.000   0.830
    3        0.405   0.425   0.000   0.830
    4        0.406   0.425   0.000   0.830
    5        0.404   0.428   0.000   0.832
    6        0.404   0.428   0.000   0.832
    7        0.405   0.429   0.000   0.834
    8        0.405   0.429   0.000   0.834
    9        0.405   0.428   0.000   0.833
   10        0.405   0.428   0.000   0.833
   11        0.404   0.428   0.000   0.832
   12        0.405   0.428   0.000   0.832
   13        0.405   0.429   0.000   0.834
   14        0.405   0.429   0.000   0.834
   15        0.405   0.429   0.000   0.834
   16        0.405   0.429   0.000   0.834
   17        0.405   0.431   0.000   0.836
   18        0.405   0.431   0.000   0.835
   19        0.332   0.358   5.125   5.815
   20        0.333   0.355   5.134   5.823
   21        0.338   0.358   5.116   5.812
   22        0.338   0.351   5.126   5.815
   23        0.338   0.353   5.126   5.817
   24        0.339   0.354   5.118   5.811
   25        0.337   0.365   5.096   5.799
   26        0.333   0.352   5.140   5.825
   27        0.335   0.357   5.125   5.817
   28        0.330   0.354   5.142   5.825
   29        0.333   0.353   5.144   5.829
   30        0.331   0.357   5.124   5.812
   31        0.327   0.352   5.161   5.840
   32        0.332   0.346   5.148   5.827
   33        0.334   0.355   5.131   5.820
   34        0.333   0.357   5.124   5.814
   35        0.335   0.358   5.118   5.811
   36        0.332   0.355   5.139   5.826
--------------------------------------------------
tot         13.300  14.093  92.337 119.730
 


 magnetization (x)
 
# of ion       s       p       d       tot
------------------------------------------
    1       -0.001  -0.001   0.000  -0.003
    2       -0.001  -0.001   0.000  -0.002
    3        0.006   0.014   0.000   0.021
    4        0.006   0.014   0.000   0.020
    5        0.001   0.000   0.000   0.002
    6        0.001   0.001   0.000   0.002
    7       -0.007  -0.016   0.000  -0.024
    8       -0.008  -0.016   0.000  -0.024
    9       -0.000   0.000   0.000   0.000
   10       -0.000  -0.000   0.000  -0.001
   11       -0.002  -0.002   0.000  -0.004
   12       -0.002  -0.002   0.000  -0.004
   13       -0.003  -0.003   0.000  -0.006
   14       -0.003  -0.002   0.000  -0.005
   15        0.001  -0.001   0.000   0.000
   16        0.001  -0.000   0.000   0.001
   17       -0.000  -0.001   0.000  -0.001
   18       -0.000  -0.001   0.000  -0.001
   19        0.019   0.023   2.298   2.340
   20       -0.019  -0.022  -2.213  -2.254
   21       -0.034  -0.025  -2.456  -2.515
   22       -0.030  -0.014  -2.560  -2.604
   23        0.031   0.014   2.528   2.573
   24        0.036   0.024   2.505   2.566
   25        0.038   0.035   2.548   2.620
   26        0.025   0.006   2.259   2.290
   27       -0.019  -0.017  -2.340  -2.376
   28        0.016   0.017   2.090   2.123
   29       -0.030  -0.020  -2.192  -2.241
   30        0.005   0.014   2.277   2.297
   31       -0.032  -0.038  -1.396  -1.466
   32       -0.020   0.008  -2.392  -2.404
   33        0.031   0.026   2.268   2.325
   34       -0.007  -0.020  -2.289  -2.316
   35        0.020   0.023   2.411   2.455
   36       -0.018  -0.024  -2.094  -2.136
--------------------------------------------------
tot          0.001  -0.006   1.251   1.246
 

 total amount of memory used by VASP MPI-rank0   740218. kBytes
=======================================================================

   base      :      30000. kBytes
   nonl-proj :      34307. kBytes
   fftplans  :      21726. kBytes
   grid      :      14732. kBytes
   one-center:        279. kBytes
   wavefun   :     639174. kBytes
 
  
  
 General timing and accounting informations for this job:
 ========================================================
  
                  Total CPU time used (sec):     1504.651
                            User time (sec):     1479.886
                          System time (sec):       24.765
                         Elapsed time (sec):     1537.371
  
                   Maximum memory used (kb):      880116.
                   Average memory used (kb):           0.
  
                          Minor page faults:       669922
                          Major page faults:           15
                 Voluntary context switches:         6846
